1 : H2O_trimer_outputMOCOEFF.inp
----- GAMESS execution script 'rungms' -----
This job is running on host joh-ASUS
under operating system Linux at lun 10 ene 2022 10:07:27 -03
Available scratch disk space (Kbyte units) at beginning of the job is
Filesystem     1K-blocks      Used Available Use% Mounted on
/dev/nvme0n1p7 673524032 113062996 526178184  18% /
GAMESS temporary binary files will be written to /tmp
GAMESS supplementary output files will be written to /tmp
Copying input file ./H2O_trimer_outputMOCOEFF.inp to your run's scratch directory...

 Distributed Data Interface kickoff program.
 Initiating 1 compute processes on 1 nodes to run the following command:
 /usr/local/gamess/gamess.00.x H2O_trimer_outputMOCOEFF 

          *******************************************************
          *                                                     *
          *      GAMESS VERSION = 30 SEP 2021 (R2 Patch 1)      *
          *                                                     *
          *              doi.org/10.1063/5.0005188              *
          *                                                     *
          **************** 64 BIT LINUX VERSION *****************

  GAMESS HAS BEEN MADE POSSIBLE WITH IMPORTANT CONTRIBUTIONS FROM
  THE FOLLOWING INDIVIDUALS (IN ALPHABETICAL ORDER):

     IVANA ADAMOVIC, CHRISTINE AIKENS, TOMOKO AKAMA,
     YURI ALEXEEV, YURIKO AOKI, POOJA ARORA, TOSHIO ASADA,
     ANDREY ASADCHEV, KIM K. BALDRIDGE, PRADIPTA BANDYOPADHYAY,
     TAYLOR A. BARNES, MARIA BARYSZ, ROB BELL,
     JONATHAN BENTZ, COLLEEN BERTONI,
     JERRY A. BOATZ, BRETT BODE, KURT BRORSEN, KURT R. BRORSEN,
     LAIMUTIS BYTAUTAS, CALEB CARLIN, LAURA CARRINGTON,
     GALINA CHABAN, BENOIT CHAMPAGNE, WEI CHEN, MAHITO CHIBA,
     DAN CHIPMAN, CHEOL HO CHOI, TANNER CULPITT,
     DIPAYAN DATTA, PAUL DAY, ALBERT DEFUSCO,
     NUWAN DESILVA, J. EMILIANO DEUSTUA,
     TIM DUDLEY, MICHEL DUPUIS, STEVEN T. ELBERT,
     DMITRI FEDOROV, ALEX FINDLATER, GRAHAM FLETCHER,
     MARK FREITAG, CHRISTIAN FRIEDL, DAVID GARMER,
     IGOR S. GERASIMOV, KURT GLAESEMANN, MARK S. GORDON,
     JEFFREY GOUR, FENG LONG GU, EMILIE B. GUIDEZ,
     ANASTASIA GUNINA, SHARON HAMMES-SCHIFFER, MASATAKE HARUTA,
     KIMIHIKO HIRAO, YASUHIRO IKABATA, TZVETELIN IORDANOV,
     STEPHAN IRLE, KAZUYA ISHIMURA, JOE IVANIC, FRANK JENSEN,
     JAN H. JENSEN, VISVALDAS KAIRYS, MUNEAKI KAMIYA,
     MICHIO KATOUDA, NAOAKI KAWAKAMI, DAN KEMP, BERNARD KIRTMAN,
     KAZUO KITAURA, MARIUSZ KLOBUKOWSKI, MASATO KOBAYASHI,
     PRAKASHAN KORAMBATH, JACEK KORCHOWIEC, SHIRO KOSEKI,
     KAROL KOWALSKI, JIMMY KROMANN, STANISLAW KUCHARSKI,
     HENRY KURTZ, SAROM SOK LEANG, HUI LI, SHUHUA LI, WEI LI,
     JESSE LUTZ, ALEKSANDR O. LYKHIN, MARCIN MAKOWSKI,
     JOANI MATO, NIKITA MATSUNAGA, BENEDETTA MENNUCCI,
     GRANT MERRILL, NORIYUKI MINEZAWA, VLADIMIR MIRONOV,
     EISAKU MIYOSHI, JOHN A. MONTGOMERY JR., HIROTOSHI MORI,
     JONATHAN MULLIN, MONIKA MUSIAL, SHIGERU NAGASE,
     TAKESHI NAGATA, HIROMI NAKAI, TAKAHITO NAKAJIMA,
     YUYA NAKAJIMA, HARUYUKI NAKANO, HIROYA NAKATA, SEAN NEDD,
     HEATHER NETZLOFF, KIET A. NGUYEN, YOSHIO NISHIMOTO,
     BOSILJKA NJEGIC, RYAN OLSON, MIKE PAK, ROBERTO PEVERATI,
     BUU PHAM, PIOTR PIECUCH, ANNA POMOGAEVA, DAVID POOLE,
     SPENCER PRUITT, OLIVIER QUINET, LUKE ROSKOP,
     KLAUS RUEDENBERG, ANDREW SAND, TOSAPORN SATTASATHUCHANA,
     NOZOMI SAWADA, MICHAEL W. SCHMIDT, PATRICK E. SCHNEIDER,
     JUNJI SEINO, PRACHI SHARMA, JUN SHEN, JIM SHOEMAKER,
     YINAN SHU, DEJUN SI, JONATHAN SKONE, LYUDMILA SLIPCHENKO,
     TONY SMITH, JIE SONG, MARK SPACKMAN, CASPER STEINMANN,
     WALT STEVENS, PEIFENG SU, SHUJUN SU, CHET SWALINA,
     TETSUYA TAKETSUGU, ZHEN TAO, NANDUN THELLAMUREGE
     SEIKEN TOKURA, JACOPO TOMASI, TSUGUKI TOUMA, TAKAO TSUNEDA,
     HIROAKI UMEDA, JORGE LUIS GALVEZ VALLEJO, YALI WANG,
     SIMON WEBB, AARON WEST, THERESA L. WINDUS, MARTA WLOCH,
     PENG XU, KIYOSHI YAGI, SUSUMU YANAGISAWA, YANG YANG,
     SOOHAENG YOO, TAKESHI YOSHIKAWA, FEDERICO ZAHARIEV,
     TOBY ZENG

  WHO ARE SUPPORTED BY THEIR INSTITUTION/UNIVERSITY/COMPANY/GROUP
  (IN ALPHABETICAL ORDER):

     EP ANALYTICS, FACULTES UNIVERSITAIRES NOTRE-DAME DE LA PAIX,
     INSTITUTE FOR MOLECULAR SCIENCE, IOWA STATE UNIVERSITY,
     JACKSON STATE UNIVERSITY, JOHANNES KEPLER UNIVERSITY LINZ,
     KYUSHU UNIVERSITY, MICHIGAN STATE UNIVERSITY,
     MIE UNIVERSITY, THE MOLECULAR SCIENCES SOFTWARE INSTITUTE,
     MOSCOW STATE UNIVERSITY,
     N. COPERNICUS UNIVERSITY, NAGOYA UNIVERSITY,
     NANJING UNIVERSITY, NAT. INST. OF ADVANCED INDUSTRIAL
     SCIENCE AND TECHNOLOGY, NATIONAL INST. OF STANDARDS AND
     TECHNOLOGY, NESMEYANOV INSTITUTE OF ORGANOELEMENT COMPOUNDS
     OF RUSSIAN ACADEMY OF SCIENCES, OSAKA PREFECTURE UNIVERSITY,
     PENNSYLVANIA STATE UNIVERSITY, TOKYO INSTITUTE OF TECHNOLOGY,
     UNIVERSITY OF AARHUS, UNIVERSITY OF ALBERTA,
     UNIVERSITY OF CALIFORNIA AT SANTA BARBARA,
     UNIVERSITY OF COPENHAGEN, UNIVERSITY OF IOWA,
     UNIVERSITY OF MEMPHIS, UNIVERSITY OF MINNESOTA,
     UNIVERSITY OF NEBRASKA, UNIVERSITY OF NEW ENGLAND,
     UNIVERSITY OF NOTRE DAME, UNIVERSITY OF PISA,
     UNIVERSITY OF SILESIA, UNIVERSITY OF TOKYO,
     UNIVERSITY OF ZURICH, WASEDA UNIVERSITY, YALE UNIVERSITY

  GAMESS SOFTWARE MANAGEMENT TEAM FOR THIS RELEASE:
     MARK S. GORDON (TEAM LEAD),
     BRETT BODE (SENIOR ADVISOR),
     GIUSEPPE BARCA,
     COLLEEN BERTONI,
     KRISTOPHER KEIPERT (ADVISOR),
     SAROM S. LEANG (DEVELOPMENT LEAD),
     BUU PHAM,
     JORGE LUIS GALVEZ VALLEJO (WEBSITE ADMINISTRATOR),
     PENG XU

 EXECUTION OF GAMESS BEGUN 10:07:27 10-JAN-2022    

            ECHO OF THE FIRST FEW INPUT CARDS -
 INPUT CARD>! EXAM 37.                                                                      
 INPUT CARD>!    water trimer...illustration of FMO method on clusters                      
 INPUT CARD>!                                                                               
 INPUT CARD>!    A total of 21 energies are computed in this run,                           
 INPUT CARD>!    of which the very first and last are -75.0201194583                        
 INPUT CARD>!    and -149.9943977172, from various monomer and dimer                        
 INPUT CARD>!    calculations.  Combined together, the results for                          
 INPUT CARD>!    2-body FMO-RHF are:                                                        
 INPUT CARD>!    Euncorr(2)= -224.910612407, RMS GRADIENT = 0.0267805                       
 INPUT CARD>!                                                                               
 INPUT CARD>!    Explicit RHF/STO-3G calculation on these coords has                        
 INPUT CARD>!             E= -224.9112662623,          grad=0.0269349                       
 INPUT CARD>!                                                                               
 INPUT CARD>!    See ../gamess/tools/fmo for larger examples based on                       
 INPUT CARD>!    published data and examples involving bond fractioning.                    
 INPUT CARD>!                                                                               
 INPUT CARD> $contrl scftyp=rhf  runtyp=energy nprint=3 $end                                
 INPUT CARD> $system timlim=1 $end                                                          
 INPUT CARD> $basis  gbasis=sto ngauss=3 $end                                               
 INPUT CARD> $fmo    nfrag=3 icharg(1)=0,0,0                                                
 INPUT CARD>         frgnam(1)=frag01,frag02,frag03                                         
 INPUT CARD>         indat(1)=1,1,1,                                                        
 INPUT CARD>                  2,2,2,                                                        
 INPUT CARD>                  3,3,3                                                         
 INPUT CARD> respap=10.0 resppc=10.0 resdim=10.0                                            
 INPUT CARD> $end                                                                           
 INPUT CARD> $fmoprp nprint=0 $end                                                          
 INPUT CARD> $fmoxyz                                                                        
 INPUT CARD>O  O        .000000     .000000     .000000                                     
 INPUT CARD>H  H        .000000     .000000     .957200                                     
 INPUT CARD>H  H        .926627     .000000    -.239987                                     
 INPUT CARD>O  O       2.542027     .893763   -1.001593                                     
 INPUT CARD>H  H       1.991815    1.623962   -1.284979                                     
 INPUT CARD>H  H       2.958433     .581215   -1.804806                                     
 INPUT CARD>O  O        .162059    2.462918   -1.477183                                     
 INPUT CARD>H  H       -.189749    1.755643    -.936605                                     
 INPUT CARD>H  H       -.375542    2.449889   -2.269046                                     
 INPUT CARD> $end                                                                           
 INPUT CARD> $data                                                                          
 INPUT CARD>Basis set input, with no atomic coordinates                                     
 INPUT CARD>C1                                                                              
 INPUT CARD>h-1 1                                                                           
 INPUT CARD>c-1 6                                                                           
 INPUT CARD>n-1 7                                                                           
 INPUT CARD>o-1 8                                                                           
 INPUT CARD> $end                                                                           
 INPUT CARD>! TRAVIS-CI SKIP                                                                
 INPUT CARD>                                                                                
 INPUT CARD>                                                                                
    1000000 WORDS OF MEMORY AVAILABLE

     BASIS OPTIONS
     -------------
     GBASIS=STO          IGAUSS=       3      POLAR=NONE    
     NDFUNC=       0     NFFUNC=       0     DIFFSP=       F
     NPFUNC=       0      DIFFS=       F     BASNAM=        


     RUN TITLE
     ---------
 Basis set input, with no atomic coordinates                                     

 THE POINT GROUP OF THE MOLECULE IS C1      
 THE ORDER OF THE PRINCIPAL AXIS IS     0

 ATOM   ATOMIC CHARGE
 H-1         1.0
 C-1         6.0
 N-1         7.0
 O-1         8.0

     ATOMIC BASIS SET LIBRARY
     ----------------
 THE CONTRACTED PRIMITIVE FUNCTIONS HAVE BEEN UNNORMALIZED
 THE CONTRACTED BASIS FUNCTIONS ARE NOW NORMALIZED TO UNITY

  SHELL TYPE  PRIMITIVE        EXPONENT          CONTRACTION COEFFICIENT(S)

 H-1       

      1   S       1             3.4252509    0.154328967295
      1   S       2             0.6239137    0.535328142282
      1   S       3             0.1688554    0.444634542185

 C-1       

      2   S       4            71.6168373    0.154328967295
      2   S       5            13.0450963    0.535328142282
      2   S       6             3.5305122    0.444634542185

      3   L       7             2.9412494   -0.099967229187    0.155916274999
      3   L       8             0.6834831    0.399512826089    0.607683718598
      3   L       9             0.2222899    0.700115468880    0.391957393099

 N-1       

      4   S      10            99.1061690    0.154328967295
      4   S      11            18.0523124    0.535328142282
      4   S      12             4.8856602    0.444634542185

      5   L      13             3.7804559   -0.099967229187    0.155916274999
      5   L      14             0.8784966    0.399512826089    0.607683718598
      5   L      15             0.2857144    0.700115468880    0.391957393099

 O-1       

      6   S      16           130.7093214    0.154328967295
      6   S      17            23.8088661    0.535328142282
      6   S      18             6.4436083    0.444634542185

      7   L      19             5.0331513   -0.099967229187    0.155916274999
      7   L      20             1.1695961    0.399512826089    0.607683718598
      7   L      21             0.3803890    0.700115468880    0.391957393099

 TOTAL NUMBER OF BASIS SET SHELLS             =    7
 NUMBER OF CARTESIAN GAUSSIAN BASIS FUNCTIONS =   16

 SELECTED MURRAY-HANDY-LAMING RADIAL GRID

 LEGACY BECKE'S FUZZY CELL METHOD

 SELECTED ORIGINAL BECKE'S PARTITION FUNCTION

     $CONTRL OPTIONS
     ---------------
 SCFTYP=RHF          RUNTYP=ENERGY       EXETYP=RUN     
 MPLEVL=       0     CITYP =NONE         CCTYP =NONE         VBTYP =NONE    
 DFTTYP=NONE         TDDFT =NONE    
 MULT  =       1     ICHARG=       0     NZVAR =       0     COORD =UNIQUE  
 PP    =NONE         RELWFN=NONE         LOCAL =NONE         NUMGRD=       F
 ISPHER=      -1     NOSYM =       0     MAXIT =      30     UNITS =ANGS    
 PLTORB=       F     MOLPLT=       F     AIMPAC=       F     FRIEND=        
 NPRINT=       3     IREST =       0     GEOM  =INPUT   
 NORMF =       0     NORMP =       0     ITOL  =      24     ICUT  =      12
 INTTYP=BEST         GRDTYP=BEST         QMTTOL= 1.0E-06

     $SYSTEM OPTIONS
     ---------------
  REPLICATED MEMORY=     1000000 WORDS (ON EVERY NODE).
 DISTRIBUTED MEMDDI=           0 MILLION WORDS IN AGGREGATE,
 MEMDDI DISTRIBUTED OVER   1 PROCESSORS IS           0 WORDS/PROCESSOR.
 TOTAL MEMORY REQUESTED ON EACH PROCESSOR=     1000000 WORDS.
 TIMLIM=           1.00 MINUTES, OR       0.0 DAYS.
 PARALL= F  BALTYP=  DLB     KDIAG=    0  COREFL= F
 MXSEQ2=     300 MXSEQ3=     150  mem10=         0  mem22=         0

     High-tech $SYSTEM options in MODIO:       1
        (       1) file flushing:        no 
        (       2) recycle dictionary:   no 
        (       4) skip timing summary:  no 
        (       8) save DFT grid file:   yes
        (      16) reduce output:        no 
        (      32) slaves open F15:      yes
        (      64) in-memory F15:        no 
        (     128) parallelize EVVRSP:   yes
        (     256) reduce timing output: no 
        (     512) use XYZ file:         no 
        (    1024) supershort output:    no 
        (    2048) superfast calculation:no 

          ----------------
          PROPERTIES INPUT
          ----------------

     MOMENTS            FIELD           POTENTIAL          DENSITY
 IEMOM =       1   IEFLD =       0   IEPOT =       0   IEDEN =       0
 WHERE =COMASS     WHERE =NUCLEI     WHERE =NUCLEI     WHERE =NUCLEI  
 OUTPUT=BOTH       OUTPUT=BOTH       OUTPUT=NONE       OUTPUT=BOTH    
 IEMINT=       0   IEFINT=       0                     IEDINT=       0
                                                       MORB  =       0
          EXTRAPOLATION IN EFFECT
          SOSCF IN EFFECT
 ORBITAL PRINTING OPTION: NPREO=     1 32767     2     1

     -------------------------------
     INTEGRAL TRANSFORMATION OPTIONS
     -------------------------------
     NWORD  =            0
     CUTOFF = 1.0E-10     MPTRAN =       0
     DIRTRF =       F     AOINTS =DUP     

          ----------------------
          INTEGRAL INPUT OPTIONS
          ----------------------
 NOPK  =       1 NORDER=       0 SCHWRZ=       T

 ..... DONE SETTING UP THE RUN .....
 STEP CPU TIME =     0.01 TOTAL CPU TIME =          0.0 (      0.0 MIN)
 TOTAL WALL CLOCK TIME=          0.0 SECONDS, CPU UTILIZATION IS    31.69%
 STEP CPU TIME =     0.00 TOTAL CPU TIME =          0.0 (      0.0 MIN)
 TOTAL WALL CLOCK TIME=          0.0 SECONDS, CPU UTILIZATION IS    31.36%

                    ----------------------
                    AO INTEGRAL TECHNOLOGY
                    ----------------------
     S,P,L SHELL ROTATED AXIS INTEGRALS, REPROGRAMMED BY
        KAZUYA ISHIMURA (IMS) AND JOSE SIERRA (SYNSTAR).
     S,P,D,L SHELL ROTATED AXIS INTEGRALS PROGRAMMED BY
        KAZUYA ISHIMURA (INSTITUTE FOR MOLECULAR SCIENCE).
     S,P,D,F,G SHELL TO TOTAL QUARTET ANGULAR MOMENTUM SUM 5,
        ERIC PROGRAM BY GRAHAM FLETCHER (ELORET AND NASA ADVANCED
        SUPERCOMPUTING DIVISION, AMES RESEARCH CENTER).
     S,P,D,F,G,L SHELL GENERAL RYS QUADRATURE PROGRAMMED BY
        MICHEL DUPUIS (PACIFIC NORTHWEST NATIONAL LABORATORY).
 STEP CPU TIME =     0.01 TOTAL CPU TIME =          0.0 (      0.0 MIN)
 TOTAL WALL CLOCK TIME=          0.0 SECONDS, CPU UTILIZATION IS    53.95%
 STEP CPU TIME =     0.00 TOTAL CPU TIME =          0.0 (      0.0 MIN)
 TOTAL WALL CLOCK TIME=          0.0 SECONDS, CPU UTILIZATION IS    53.96%
 Initialising fragments
 STEP CPU TIME =     0.00 TOTAL CPU TIME =          0.0 (      0.0 MIN)
 TOTAL WALL CLOCK TIME=          0.0 SECONDS, CPU UTILIZATION IS    53.91%
 STEP CPU TIME =     0.00 TOTAL CPU TIME =          0.0 (      0.0 MIN)
 TOTAL WALL CLOCK TIME=          0.0 SECONDS, CPU UTILIZATION IS    53.93%
 OPENING FILE SOCCDAT WITH      13 LOGICAL RECORDS OF      28 WORDS
 WITH A MAXIMUM OF          13 PHYSICAL RECORDS OF    2048 WORDS

 -----------------------------------------------------------------------
                  The Fragment Molecular Orbital (FMO) method.
                         Version 5.5
 Contributors: N. Asada, K. R. Brorsen, M. Chiba, C. Choi, D. G. Fedorov,
 D. S. Kaliakin, N. Minezawa, V. Mironov, T. Nagata, H. Nakata, Y. Nishimoto,
               S. R. Pruitt, C. Steinmann, and F. Zahariev.
       All publications using the FMO method in GAMESS should cite:
          D. G. Fedorov, K. Kitaura, J. Chem. Phys. 120, 6832 (2004).
 -----------------------------------------------------------------------

 Used memory (words):         5519
 Number of fragments:      3
 Number of layers:         1
 N-body FMO method:        2
 Number of atoms:          9
 Total charge:             0
 Total spin multiplicity:  1
 Number of basis sets:     1
 Number of LMO types:      0
 Number of boundaries:     0
 MonomerSCF convergence:   0.1000E-06
 Max monomerSCF iter:     30
 MonomerSCF criterion:     internal
 Max AOs per n-mer:        7       14
 Layer electron correlation information
     nbody=  2
    SCFTYP=RHF     
    MPLEVL=  0
    DFTTYP=NONE    
     CITYP=NONE    
     CCTYP=NONE    
     TDDFT=NONE    
 FMO method: FMO2-RHF

 FMO approximations.
    Using AO pop approximation for the 2e ESP with the VdW factor  10.00
    Using point charge approximation for the 2e ESP with the VdW factor  10.00
    Using ES-dimer approximation with the VdW factor  10.00
    The uniform distances will be used in ESPs.
    Van der Waals radii in Angstrom are:
       R(O  )=  1.4000
       R(H  )=  1.2000

 FMO initial guess options.
    Using monomer density to form n-mer guess.
    Use 1-mer Aufbau for initial n-mer orbitals.

 FMO extensions.

 FMO automation options.

 FMO SCF converger options.
    SCF convergers:
     65     65     65     65     65     65     65     65     65     65
    Fragment densities will be exchanged.

 FMO parallelisation options.
    Smart parallel load balancing: large jobs first.
    ESPs will be shell parallelised.
    Broadcast all fragments at once.
    Do the fragment initialisation in the reverse order.

 FMO properties and print-out level.
    Interfragment CT method:    4
    Voluminous print-out level.

 Array dimensions maxbnd,maxknd,maxcbs,maxcao,maxbbd,maxnat are:
                       7     10      5      5      5      3

 --------------------------------------------------




 Starting layer 1 nbody=2
 SCFTYP=RHF     MPLEVL=0 DFTTYP=NONE     CITYP=NONE    CCTYP=NONE    TDDFT=NONE    



 Running initial guess for monomer       3

          ********************
          1 ELECTRON INTEGRALS
          ********************
 OVERLAP MATRIX

                      1          2          3          4          5

    1  O  1  S    1.000000
    2  O  1  S    0.236704   1.000000
    3  O  1  X   -0.000000   0.000000   1.000000
    4  O  1  Y   -0.000000   0.000000   0.000000   1.000000
    5  O  1  Z    0.000000  -0.000000   0.000000   0.000000   1.000000
    6  H  2  S    0.053978   0.474807  -0.144609  -0.290722   0.222202
    7  H  3  S    0.053978   0.474807  -0.220978  -0.005356  -0.325491

                      6          7

    6  H  2  S    1.000000
    7  H  3  S    0.251717   1.000000
 BARE NUCLEUS HAMILTONIAN INTEGRALS (H=T+V)

                      1          2          3          4          5

    1  O  1  S  -32.720933
    2  O  1  S   -7.612808  -9.334827
    3  O  1  X    0.014424   0.169663  -7.513975
    4  O  1  Y    0.011682   0.137405  -0.034900  -7.525928
    5  O  1  Z    0.004075   0.047935  -0.032130   0.050751  -7.583070
    6  H  2  S   -1.749573  -3.741384   0.998985   1.941853  -1.434236
    7  H  3  S   -1.749572  -3.741383   1.497302   0.079811   2.139512

                      6          7

    6  H  2  S   -5.076710
    7  H  3  S   -1.608381  -5.076709
 KINETIC ENERGY INTEGRALS

                      1          2          3          4          5

    1  O  1  S   29.003204
    2  O  1  S   -0.168011   0.808128
    3  O  1  X    0.000000  -0.000000   2.528731
    4  O  1  Y    0.000000  -0.000000   0.000000   2.528731
    5  O  1  Z   -0.000000  -0.000000  -0.000000   0.000000   2.528731
    6  H  2  S   -0.002512   0.128611  -0.104483  -0.210053   0.160545
    7  H  3  S   -0.002512   0.128611  -0.159661  -0.003869  -0.235174

                      6          7

    6  H  2  S    0.760032
    7  H  3  S    0.008485   0.760032
 ...... END OF ONE-ELECTRON INTEGRALS ......
 STEP CPU TIME =     0.00 TOTAL CPU TIME =          0.0 (      0.0 MIN)
 TOTAL WALL CLOCK TIME=          0.0 SECONDS, CPU UTILIZATION IS    55.13%

          -------------
          GUESS OPTIONS
          -------------
          GUESS =HUCKEL            NORB  =       0          NORDER=       0
          MIX   =       F          PRTMO =       F          PUNMO =       F
          TOLZ  = 1.0E-08          TOLE  = 1.0E-05
          SYMDEN=       F          PURIFY=       F

 INITIAL GUESS ORBITALS GENERATED BY HUCKEL   ROUTINE.
 HUCKEL GUESS REQUIRES      2620 WORDS.

 SYMMETRIES FOR INITIAL GUESS ORBITALS FOLLOW.   BOTH SET(S).
     5 ORBITALS ARE OCCUPIED (    1 CORE ORBITALS).
     2=A        3=A        4=A        5=A        6=A        7=A   
 ...... END OF INITIAL ORBITAL SELECTION ......
 STEP CPU TIME =     0.00 TOTAL CPU TIME =          0.0 (      0.0 MIN)
 TOTAL WALL CLOCK TIME=          0.0 SECONDS, CPU UTILIZATION IS    54.66%

 Running initial guess for monomer       2

          ********************
          1 ELECTRON INTEGRALS
          ********************
 OVERLAP MATRIX

                      1          2          3          4          5

    1  O  1  S    1.000000
    2  O  1  S    0.236704   1.000000
    3  O  1  X   -0.000000   0.000000   1.000000
    4  O  1  Y   -0.000000   0.000000   0.000000   1.000000
    5  O  1  Z    0.000000  -0.000000  -0.000000  -0.000000   1.000000
    6  H  2  S    0.053978   0.474807  -0.226162   0.300144  -0.116484
    7  H  3  S    0.053978   0.474807   0.171162  -0.128471  -0.330157

                      6          7

    6  H  2  S    1.000000
    7  H  3  S    0.251717   1.000000
 BARE NUCLEUS HAMILTONIAN INTEGRALS (H=T+V)

                      1          2          3          4          5

    1  O  1  S  -32.720933
    2  O  1  S   -7.612808  -9.334827
    3  O  1  X    0.002170   0.025525  -7.522616
    4  O  1  Y   -0.006773  -0.079671   0.072563  -7.543727
    5  O  1  Z    0.017622   0.207279   0.024356  -0.006018  -7.556630
    6  H  2  S   -1.749573  -3.741384   1.484061  -1.984486   0.827753
    7  H  3  S   -1.749573  -3.741384  -1.108511   0.812273   2.221984

                      6          7

    6  H  2  S   -5.076710
    7  H  3  S   -1.608383  -5.076710
 KINETIC ENERGY INTEGRALS

                      1          2          3          4          5

    1  O  1  S   29.003204
    2  O  1  S   -0.168011   0.808128
    3  O  1  X    0.000000  -0.000000   2.528731
    4  O  1  Y    0.000000  -0.000000  -0.000000   2.528731
    5  O  1  Z    0.000000   0.000000   0.000000   0.000000   2.528731
    6  H  2  S   -0.002512   0.128611  -0.163407   0.216861  -0.084162
    7  H  3  S   -0.002512   0.128611   0.123668  -0.092823  -0.238545

                      6          7

    6  H  2  S    0.760032
    7  H  3  S    0.008485   0.760032
 ...... END OF ONE-ELECTRON INTEGRALS ......
 STEP CPU TIME =     0.00 TOTAL CPU TIME =          0.0 (      0.0 MIN)
 TOTAL WALL CLOCK TIME=          0.0 SECONDS, CPU UTILIZATION IS    55.54%

          -------------
          GUESS OPTIONS
          -------------
          GUESS =HUCKEL            NORB  =       0          NORDER=       0
          MIX   =       F          PRTMO =       F          PUNMO =       F
          TOLZ  = 1.0E-08          TOLE  = 1.0E-05
          SYMDEN=       F          PURIFY=       F

 INITIAL GUESS ORBITALS GENERATED BY HUCKEL   ROUTINE.
 HUCKEL GUESS REQUIRES      2620 WORDS.

 SYMMETRIES FOR INITIAL GUESS ORBITALS FOLLOW.   BOTH SET(S).
     5 ORBITALS ARE OCCUPIED (    1 CORE ORBITALS).
     2=A        3=A        4=A        5=A        6=A        7=A   
 ...... END OF INITIAL ORBITAL SELECTION ......
 STEP CPU TIME =     0.00 TOTAL CPU TIME =          0.0 (      0.0 MIN)
 TOTAL WALL CLOCK TIME=          0.0 SECONDS, CPU UTILIZATION IS    55.84%

 Running initial guess for monomer       1

          ********************
          1 ELECTRON INTEGRALS
          ********************
 OVERLAP MATRIX

                      1          2          3          4          5

    1  O  1  S    1.000000
    2  O  1  S    0.236704   1.000000
    3  O  1  X    0.000000   0.000000   1.000000
    4  O  1  Y    0.000000   0.000000   0.000000   1.000000
    5  O  1  Z    0.000000   0.000000   0.000000   0.000000   1.000000
    6  H  2  S    0.053978   0.474807   0.000000   0.000000   0.393452
    7  H  3  S    0.053978   0.474807   0.380885   0.000000  -0.098645

                      6          7

    6  H  2  S    1.000000
    7  H  3  S    0.251717   1.000000
 BARE NUCLEUS HAMILTONIAN INTEGRALS (H=T+V)

                      1          2          3          4          5

    1  O  1  S  -32.720933
    2  O  1  S   -7.612808  -9.334827
    3  O  1  X   -0.015028  -0.176763  -7.574798
    4  O  1  Y    0.000000   0.000000   0.000000  -7.457663
    5  O  1  Z   -0.011632  -0.136815   0.030337   0.000000  -7.590512
    6  H  2  S   -1.749572  -3.741382  -0.057717   0.000000  -2.611984
    7  H  3  S   -1.749573  -3.741384  -2.543029   0.000000   0.598997

                      6          7

    6  H  2  S   -5.076709
    7  H  3  S   -1.608381  -5.076710
 KINETIC ENERGY INTEGRALS

                      1          2          3          4          5

    1  O  1  S   29.003204
    2  O  1  S   -0.168011   0.808128
    3  O  1  X    0.000000   0.000000   2.528731
    4  O  1  Y    0.000000   0.000000   0.000000   2.528731
    5  O  1  Z    0.000000   0.000000   0.000000   0.000000   2.528731
    6  H  2  S   -0.002512   0.128611   0.000000   0.000000   0.284277
    7  H  3  S   -0.002512   0.128611   0.275198   0.000000  -0.071273

                      6          7

    6  H  2  S    0.760032
    7  H  3  S    0.008485   0.760032
 ...... END OF ONE-ELECTRON INTEGRALS ......
 STEP CPU TIME =     0.00 TOTAL CPU TIME =          0.0 (      0.0 MIN)
 TOTAL WALL CLOCK TIME=          0.0 SECONDS, CPU UTILIZATION IS    56.63%

          -------------
          GUESS OPTIONS
          -------------
          GUESS =HUCKEL            NORB  =       0          NORDER=       0
          MIX   =       F          PRTMO =       F          PUNMO =       F
          TOLZ  = 1.0E-08          TOLE  = 1.0E-05
          SYMDEN=       F          PURIFY=       F

 INITIAL GUESS ORBITALS GENERATED BY HUCKEL   ROUTINE.
 HUCKEL GUESS REQUIRES      2620 WORDS.

 SYMMETRIES FOR INITIAL GUESS ORBITALS FOLLOW.   BOTH SET(S).
     5 ORBITALS ARE OCCUPIED (    1 CORE ORBITALS).
     2=A        3=A        4=A        5=A        6=A        7=A   
 ...... END OF INITIAL ORBITAL SELECTION ......
 STEP CPU TIME =     0.00 TOTAL CPU TIME =          0.0 (      0.0 MIN)
 TOTAL WALL CLOCK TIME=          0.0 SECONDS, CPU UTILIZATION IS    56.90%

 There are           0 separated and       3 SCF (       0 correlated) dimers.
 Estimate of max dimer size:   14 AOs,   10 occ. MOs

 Fragment statistics

      I  NAME     Q NAT0 NATB NA  NAO LAY MUL SCFTYP        NOP     MOL    CONV
 ==============================================================================
      1 FRAG01    0    3   0    5    7 1  1 G RHF             0      -1      -1
      2 FRAG02    0    3   0    5    7 1  1 G RHF             0      -1      -1
      3 FRAG03    0    3   0    5    7 1  1 G RHF             0      -1      -1
 locfmo:
 nactfmo:                    0
 nmdfrg1:                    2                    2                    2
 nmdfrg2:                    0                    0                    0

 Close fragment pairs, distance relative to vdW radii


 RHF      monomer      2 corr= NONE       , L1=     7, L0=     7 ID=      1


 Resetting LABSIZ= 1 2


          ********************
          1 ELECTRON INTEGRALS
          ********************
 OVERLAP MATRIX

                      1          2          3          4          5

    1  O  1  S    1.000000
    2  O  1  S    0.236704   1.000000
    3  O  1  X   -0.000000   0.000000   1.000000
    4  O  1  Y   -0.000000   0.000000   0.000000   1.000000
    5  O  1  Z    0.000000  -0.000000  -0.000000  -0.000000   1.000000
    6  H  2  S    0.053978   0.474807  -0.226162   0.300144  -0.116484
    7  H  3  S    0.053978   0.474807   0.171162  -0.128471  -0.330157

                      6          7

    6  H  2  S    1.000000
    7  H  3  S    0.251717   1.000000
 BARE NUCLEUS HAMILTONIAN INTEGRALS (H=T+V)

                      1          2          3          4          5

    1  O  1  S  -32.720933
    2  O  1  S   -7.612808  -9.334827
    3  O  1  X    0.002170   0.025525  -7.522616
    4  O  1  Y   -0.006773  -0.079671   0.072563  -7.543727
    5  O  1  Z    0.017622   0.207279   0.024356  -0.006018  -7.556630
    6  H  2  S   -1.749573  -3.741384   1.484061  -1.984486   0.827753
    7  H  3  S   -1.749573  -3.741384  -1.108511   0.812273   2.221984

                      6          7

    6  H  2  S   -5.076710
    7  H  3  S   -1.608383  -5.076710
 KINETIC ENERGY INTEGRALS

                      1          2          3          4          5

    1  O  1  S   29.003204
    2  O  1  S   -0.168011   0.808128
    3  O  1  X    0.000000  -0.000000   2.528731
    4  O  1  Y    0.000000  -0.000000  -0.000000   2.528731
    5  O  1  Z    0.000000   0.000000   0.000000   0.000000   2.528731
    6  H  2  S   -0.002512   0.128611  -0.163407   0.216861  -0.084162
    7  H  3  S   -0.002512   0.128611   0.123668  -0.092823  -0.238545

                      6          7

    6  H  2  S    0.760032
    7  H  3  S    0.008485   0.760032
 Z-ANGULAR MOMENTUM INTEGRALS

                      1          2          3          4          5

    1  O  1  S   -0.315881
    2  O  1  S    0.007898   0.000000
    3  O  1  X    0.006117  -0.140547  -0.140550
    4  O  1  Y    0.311658   0.553514  -0.003797  -0.000000
    5  O  1  Z   -0.002948   0.282627   0.282636  -0.000001   0.000009
    6  H  2  S   -0.405613  -0.000000   0.524041   0.395792  -0.395786
    7  H  3  S   -0.374152   0.701111  -0.000000   0.542665   0.151268

                      6          7

    6  H  2  S    0.057933
    7  H  3  S    0.151266   0.000000

          --------------------
          2 ELECTRON INTEGRALS
          --------------------

 DIRECT SCF METHOD SKIPS INTEGRAL STORAGE ON DISK.
  ...... END OF TWO-ELECTRON INTEGRALS .....
 STEP CPU TIME =     0.00 TOTAL CPU TIME =          0.0 (      0.0 MIN)
 TOTAL WALL CLOCK TIME=          0.0 SECONDS, CPU UTILIZATION IS    57.65%
 SCHWARZ INEQUALITY OVERHEAD:        56 INTEGRALS, T=        0.00
 ESP lfg=    1: NZ         784 skipped         0 blocks.

          --------------------
          2 ELECTRON INTEGRALS
          --------------------

 DIRECT SCF METHOD SKIPS INTEGRAL STORAGE ON DISK.
  ...... END OF TWO-ELECTRON INTEGRALS .....
 STEP CPU TIME =     0.00 TOTAL CPU TIME =          0.0 (      0.0 MIN)
 TOTAL WALL CLOCK TIME=          0.0 SECONDS, CPU UTILIZATION IS    57.91%
 SCHWARZ INEQUALITY OVERHEAD:        56 INTEGRALS, T=        0.00
 ESP lfg=    3: NZ         784 skipped         0 blocks.

          --------------------
          2 ELECTRON INTEGRALS
          --------------------

 DIRECT SCF METHOD SKIPS INTEGRAL STORAGE ON DISK.
  ...... END OF TWO-ELECTRON INTEGRALS .....
 STEP CPU TIME =     0.00 TOTAL CPU TIME =          0.0 (      0.0 MIN)
 TOTAL WALL CLOCK TIME=          0.0 SECONDS, CPU UTILIZATION IS    58.10%
 ...... END OF ONE-ELECTRON INTEGRALS ......
 STEP CPU TIME =     0.00 TOTAL CPU TIME =          0.0 (      0.0 MIN)
 TOTAL WALL CLOCK TIME=          0.0 SECONDS, CPU UTILIZATION IS    58.13%

          --------------------
          2 ELECTRON INTEGRALS
          --------------------

 THE -PK- OPTION IS OFF, THE INTEGRALS ARE NOT IN SUPERMATRIX FORM.
 STORING   15000 INTEGRALS/RECORD ON DISK, USING 12 BYTES/INTEGRAL.
 TWO ELECTRON INTEGRAL EVALUATION REQUIRES   89366 WORDS OF MEMORY.
 SCHWARZ INEQUALITY OVERHEAD:        28 INTEGRALS, T=        0.00
 II,JST,KST,LST =  1  1  1  1 NREC =         1 INTLOC =    1
 II,JST,KST,LST =  2  1  1  1 NREC =         1 INTLOC =    2
 II,JST,KST,LST =  3  1  1  1 NREC =         1 INTLOC =   34
 II,JST,KST,LST =  4  1  1  1 NREC =         1 INTLOC =  145
 SCHWARZ INEQUALITY TEST SKIPPED           0 INTEGRAL BLOCKS.
 TOTAL NUMBER OF NONZERO TWO-ELECTRON INTEGRALS =                 319
          1 INTEGRAL RECORDS WERE STORED ON DISK FILE  8.
  ...... END OF TWO-ELECTRON INTEGRALS .....
 STEP CPU TIME =     0.00 TOTAL CPU TIME =          0.0 (      0.0 MIN)
 TOTAL WALL CLOCK TIME=          0.0 SECONDS, CPU UTILIZATION IS    58.45%

          --------------------------
                 RHF SCF CALCULATION
          --------------------------

     NUCLEAR ENERGY =         9.1949679482
     MAXIT =   30     NPUNCH=    2
     EXTRAP=T  DAMP=F  SHIFT=F  RSTRCT=F  DIIS=F  DEM=F  SOSCF=T
     DENSITY MATRIX CONV=  1.00E-07
     SOSCF WILL OPTIMIZE      10 ORBITAL ROTATIONS, SOGTOL=   0.250
     MEMORY REQUIRED FOR RHF ITERS=     30481 WORDS.

 ITER EX DEM     TOTAL ENERGY        E CHANGE  DENSITY CHANGE     ORB. GRAD
   1  0  0      -74.8556689106   -74.8556689106   0.597925429   0.000000000
          ---------------START SECOND ORDER SCF---------------
   2  1  0      -75.0072571520    -0.1515882415   0.180081058   0.056406449
   3  2  0      -75.0188357105    -0.0115785585   0.083805236   0.017104115
   4  3  0      -75.0200743659    -0.0012386553   0.005095665   0.002972022
   5  4  0      -75.0201036537    -0.0000292879   0.002841845   0.001030477
   6  5  0      -75.0201081684    -0.0000045146   0.000011456   0.000008949
   7  6  0      -75.0201081686    -0.0000000002   0.000006765   0.000002409
   8  7  0      -75.0201081686    -0.0000000000   0.000001604   0.000000762
   9  8  0      -75.0201081686    -0.0000000000   0.000000252   0.000000138
  10  9  0      -75.0201081686    -0.0000000000   0.000000063   0.000000029
  11 10  0      -75.0201081686     0.0000000000   0.000000000   0.000000007

          -----------------
          DENSITY CONVERGED
          -----------------
     TIME TO FORM FOCK OPERATORS=       0.0 SECONDS (       0.0 SEC/ITER)
     TIME TO SOLVE SCF EQUATIONS=       0.0 SECONDS (       0.0 SEC/ITER)

 FINAL RHF ENERGY IS      -75.0201081686 AFTER  11 ITERATIONS

          ------------
          EIGENVECTORS
          ------------

                      1          2          3          4          5
                  -20.2332    -1.2663    -0.6139    -0.4553    -0.3924
                     A          A          A          A          A   
    1  O  1  S    0.994117  -0.233605   0.003074  -0.100394  -0.006226
    2  O  1  S    0.026614   0.837675  -0.016346   0.523510   0.030000
    3  O  1  X   -0.000505  -0.019346   0.393818   0.061214   0.763726
    4  O  1  Y    0.001511   0.040554  -0.417539  -0.318459   0.617979
    5  O  1  Z   -0.004010  -0.116273  -0.214828   0.713464   0.183993
    6  H  2  S   -0.005968   0.153195  -0.430246  -0.275159  -0.009235
    7  H  3  S   -0.005982   0.159516   0.448668  -0.270417  -0.013835

                      6          7
                    0.6144     0.7495
                     A          A   
    1  O  1  S   -0.132863   0.006016
    2  O  1  S    0.887192  -0.041138
    3  O  1  X   -0.051885   0.631946
    4  O  1  Y    0.228778  -0.689719
    5  O  1  Z   -0.699333  -0.310993
    6  H  2  S   -0.763125   0.878950
    7  H  3  S   -0.833521  -0.802788
 ...... END OF RHF CALCULATION ......
 STEP CPU TIME =     0.00 TOTAL CPU TIME =          0.0 (      0.0 MIN)
 TOTAL WALL CLOCK TIME=          0.0 SECONDS, CPU UTILIZATION IS    59.09%

     ----------------------------------------------------------------
     PROPERTY VALUES FOR THE RHF   SELF-CONSISTENT FIELD WAVEFUNCTION
     ----------------------------------------------------------------

          -----------------
          ENERGY COMPONENTS
          -----------------

         WAVEFUNCTION NORMALIZATION =       1.0000000000

                ONE ELECTRON ENERGY =    -122.5078215791
                TWO ELECTRON ENERGY =      38.2927454623
           NUCLEAR REPULSION ENERGY =       9.1949679482
                                      ------------------
                       TOTAL ENERGY =     -75.0201081686

 ELECTRON-ELECTRON POTENTIAL ENERGY =      38.2927454623
  NUCLEUS-ELECTRON POTENTIAL ENERGY =    -197.1348097493
   NUCLEUS-NUCLEUS POTENTIAL ENERGY =       9.1949679482
                                      ------------------
             TOTAL POTENTIAL ENERGY =    -149.6470963387
               TOTAL KINETIC ENERGY =      74.6269881701
                 VIRIAL RATIO (V/T) =       2.0052677993
 MEMORY ASSIGNEMENT
 I10, I20, I21, I30, I31, I40, I41, I60 =
****************************************************************
 LAST = ********

          ---------------------------------------
          MULLIKEN AND LOWDIN POPULATION ANALYSES
          ---------------------------------------
 MEMORY ASSIGNMENT
 I10, I30, I40, I50, I60, I70, I41, I51, I61, I71 =
********************************************************************************
 LAST = ********

     ATOMIC MULLIKEN POPULATION IN EACH MOLECULAR ORBITAL

                      1          2          3          4          5

                  2.000000   2.000000   2.000000   2.000000   2.000000

    1             2.001431   1.617953   1.086602   1.687158   1.999539
    2            -0.000715   0.186458   0.442523   0.161032   0.000138
    3            -0.000716   0.195588   0.470874   0.151810   0.000323

          ----- MULLIKEN ATOMIC OVERLAP POPULATIONS -----
          (OFF-DIAGONAL ELEMENTS NEED TO BE MULTIPLIED BY 2)

                      1          2          3          4          5

    1  O  1  S    2.105933
    2  O  1  S   -0.105107   1.955275
    3  O  1  X    0.000000   0.000000   1.484983
    4  O  1  Y   -0.000000  -0.000000   0.000000   1.318599
    5  O  1  Z   -0.000000  -0.000000  -0.000000   0.000000   1.205143
    6  H  2  S   -0.001658  -0.008664   0.088789   0.160738   0.028743
    7  H  3  S   -0.001576  -0.015053   0.050147   0.026545   0.204953

                      6          7

    6  H  2  S    0.568828
    7  H  3  S   -0.047338   0.600201

               ----- POPULATIONS IN EACH AO -----
                             MULLIKEN      LOWDIN
              1  O  1  S      1.99759     1.99597
              2  O  1  S      1.82645     1.67181
              3  O  1  X      1.62392     1.63488
              4  O  1  Y      1.50588     1.51963
              5  O  1  Z      1.43884     1.45312
              6  H  2  S      0.78944     0.85061
              7  H  3  S      0.81788     0.87397

          ----- MULLIKEN ATOMIC OVERLAP POPULATIONS -----
          (OFF-DIAGONAL ELEMENTS NEED TO BE MULTIPLIED BY 2)

             1           2           3

    1    7.8597194
    2    0.2679473   0.5688277
    3    0.2650163  -0.0473375   0.6002007

          TOTAL MULLIKEN AND LOWDIN ATOMIC POPULATIONS
       ATOM         MULL.POP.                    LOW.POP.

          TOTAL MULLIKEN AND LOWDIN ATOMIC POPULATIONS
       ATOM         MULL.POP.    CHARGE          LOW.POP.     CHARGE
    1 O             8.392683                     8.275412
    1 O             8.392683   -0.392683         8.275412   -0.275412
    2 H             0.789438                     0.850614
    2 H             0.789438    0.210562         0.850614    0.149386
    3 H             0.817880                     0.873974
    3 H             0.817880    0.182120         0.873974    0.126026

          -------------------------------
          BOND ORDER AND VALENCE ANALYSIS     BOND ORDER THRESHOLD=0.050
          -------------------------------

                   BOND                       BOND                       BOND
  ATOM PAIR DIST  ORDER      ATOM PAIR DIST  ORDER      ATOM PAIR DIST  ORDER
    1   2  0.957  0.944        1   3  0.957  0.955

                       TOTAL       BONDED        FREE
      ATOM            VALENCE     VALENCE     VALENCE
    1 O                 1.898       1.898       0.000
    2 H                 0.956       0.956       0.000
    3 H                 0.967       0.967       0.000

          ---------------------
          ELECTROSTATIC MOMENTS
          ---------------------

 POINT   1           X           Y           Z (BOHR)    CHARGE
                 1.699923    2.103735   -1.583280        0.00 (A.U.)
         DX          DY          DZ         /D/  (DEBYE)
    -0.266662    0.709343   -1.639925    1.806552
 ...... END OF PROPERTY EVALUATION ......
 STEP CPU TIME =     0.00 TOTAL CPU TIME =          0.0 (      0.0 MIN)
 TOTAL WALL CLOCK TIME=          0.0 SECONDS, CPU UTILIZATION IS    59.83%

 Iter=  1 iFrag=      2 EFMO=   -74.962554231, DD= 0.862976034, DE=************

 RHF      monomer      3 corr= NONE       , L1=     7, L0=     7 ID=      2


 Resetting LABSIZ= 1 2


          ********************
          1 ELECTRON INTEGRALS
          ********************
 OVERLAP MATRIX

                      1          2          3          4          5

    1  O  1  S    1.000000
    2  O  1  S    0.236704   1.000000
    3  O  1  X   -0.000000   0.000000   1.000000
    4  O  1  Y   -0.000000   0.000000   0.000000   1.000000
    5  O  1  Z    0.000000  -0.000000   0.000000   0.000000   1.000000
    6  H  2  S    0.053978   0.474807  -0.144609  -0.290722   0.222202
    7  H  3  S    0.053978   0.474807  -0.220978  -0.005356  -0.325491

                      6          7

    6  H  2  S    1.000000
    7  H  3  S    0.251717   1.000000
 BARE NUCLEUS HAMILTONIAN INTEGRALS (H=T+V)

                      1          2          3          4          5

    1  O  1  S  -32.720933
    2  O  1  S   -7.612808  -9.334827
    3  O  1  X    0.014424   0.169663  -7.513975
    4  O  1  Y    0.011682   0.137405  -0.034900  -7.525928
    5  O  1  Z    0.004075   0.047935  -0.032130   0.050751  -7.583070
    6  H  2  S   -1.749573  -3.741384   0.998985   1.941853  -1.434236
    7  H  3  S   -1.749572  -3.741383   1.497302   0.079811   2.139512

                      6          7

    6  H  2  S   -5.076710
    7  H  3  S   -1.608381  -5.076709
 KINETIC ENERGY INTEGRALS

                      1          2          3          4          5

    1  O  1  S   29.003204
    2  O  1  S   -0.168011   0.808128
    3  O  1  X    0.000000  -0.000000   2.528731
    4  O  1  Y    0.000000  -0.000000   0.000000   2.528731
    5  O  1  Z   -0.000000  -0.000000  -0.000000   0.000000   2.528731
    6  H  2  S   -0.002512   0.128611  -0.104483  -0.210053   0.160545
    7  H  3  S   -0.002512   0.128611  -0.159661  -0.003869  -0.235174

                      6          7

    6  H  2  S    0.760032
    7  H  3  S    0.008485   0.760032
 Z-ANGULAR MOMENTUM INTEGRALS

                      1          2          3          4          5

    1  O  1  S    3.890705
    2  O  1  S   -1.005397  -1.827309
    3  O  1  X    0.000000   0.000000   0.000000
    4  O  1  Y    0.000000   0.000000   0.000000   0.000000
    5  O  1  Z    0.000000   0.000000   0.000000   0.000000   0.000000
    6  H  2  S    0.000000   0.000000   0.000000   0.000000   0.000000
    7  H  3  S    0.000000   0.000000   0.000000   0.000000   0.000000

                      6          7

    6  H  2  S    0.000000
    7  H  3  S    0.000000   0.000000

          --------------------
          2 ELECTRON INTEGRALS
          --------------------

 DIRECT SCF METHOD SKIPS INTEGRAL STORAGE ON DISK.
  ...... END OF TWO-ELECTRON INTEGRALS .....
 STEP CPU TIME =     0.00 TOTAL CPU TIME =          0.0 (      0.0 MIN)
 TOTAL WALL CLOCK TIME=          0.0 SECONDS, CPU UTILIZATION IS    60.67%
 SCHWARZ INEQUALITY OVERHEAD:        56 INTEGRALS, T=        0.00
 ESP lfg=    1: NZ         784 skipped         0 blocks.

          --------------------
          2 ELECTRON INTEGRALS
          --------------------

 DIRECT SCF METHOD SKIPS INTEGRAL STORAGE ON DISK.
  ...... END OF TWO-ELECTRON INTEGRALS .....
 STEP CPU TIME =     0.00 TOTAL CPU TIME =          0.0 (      0.0 MIN)
 TOTAL WALL CLOCK TIME=          0.0 SECONDS, CPU UTILIZATION IS    60.85%
 SCHWARZ INEQUALITY OVERHEAD:        56 INTEGRALS, T=        0.00
 ESP lfg=    2: NZ         784 skipped         0 blocks.

          --------------------
          2 ELECTRON INTEGRALS
          --------------------

 DIRECT SCF METHOD SKIPS INTEGRAL STORAGE ON DISK.
  ...... END OF TWO-ELECTRON INTEGRALS .....
 STEP CPU TIME =     0.00 TOTAL CPU TIME =          0.0 (      0.0 MIN)
 TOTAL WALL CLOCK TIME=          0.0 SECONDS, CPU UTILIZATION IS    61.00%
 ...... END OF ONE-ELECTRON INTEGRALS ......
 STEP CPU TIME =     0.00 TOTAL CPU TIME =          0.0 (      0.0 MIN)
 TOTAL WALL CLOCK TIME=          0.0 SECONDS, CPU UTILIZATION IS    61.01%

          --------------------
          2 ELECTRON INTEGRALS
          --------------------

 THE -PK- OPTION IS OFF, THE INTEGRALS ARE NOT IN SUPERMATRIX FORM.
 STORING   15000 INTEGRALS/RECORD ON DISK, USING 12 BYTES/INTEGRAL.
 TWO ELECTRON INTEGRAL EVALUATION REQUIRES   89366 WORDS OF MEMORY.
 SCHWARZ INEQUALITY OVERHEAD:        28 INTEGRALS, T=        0.00
 II,JST,KST,LST =  1  1  1  1 NREC =         1 INTLOC =    1
 II,JST,KST,LST =  2  1  1  1 NREC =         1 INTLOC =    2
 II,JST,KST,LST =  3  1  1  1 NREC =         1 INTLOC =   34
 II,JST,KST,LST =  4  1  1  1 NREC =         1 INTLOC =  145
 SCHWARZ INEQUALITY TEST SKIPPED           0 INTEGRAL BLOCKS.
 TOTAL NUMBER OF NONZERO TWO-ELECTRON INTEGRALS =                 319
          1 INTEGRAL RECORDS WERE STORED ON DISK FILE  8.
  ...... END OF TWO-ELECTRON INTEGRALS .....
 STEP CPU TIME =     0.00 TOTAL CPU TIME =          0.0 (      0.0 MIN)
 TOTAL WALL CLOCK TIME=          0.0 SECONDS, CPU UTILIZATION IS    61.21%

          --------------------------
                 RHF SCF CALCULATION
          --------------------------

     NUCLEAR ENERGY =         9.1949672069
     MAXIT =   30     NPUNCH=    2
     EXTRAP=T  DAMP=F  SHIFT=F  RSTRCT=F  DIIS=F  DEM=F  SOSCF=T
     DENSITY MATRIX CONV=  1.00E-07
     SOSCF WILL OPTIMIZE      10 ORBITAL ROTATIONS, SOGTOL=   0.250
     MEMORY REQUIRED FOR RHF ITERS=     30481 WORDS.

 ITER EX DEM     TOTAL ENERGY        E CHANGE  DENSITY CHANGE     ORB. GRAD
   1  0  0      -74.8497352818   -74.8497352818   0.597952527   0.000000000
          ---------------START SECOND ORDER SCF---------------
   2  1  0      -75.0013268330    -0.1515915512   0.180265421   0.056482389
   3  2  0      -75.0129186632    -0.0115918303   0.083914616   0.017119222
   4  3  0      -75.0141595490    -0.0012408858   0.005109779   0.002980134
   5  4  0      -75.0141889607    -0.0000294117   0.002850629   0.001033591
   6  5  0      -75.0141934968    -0.0000045361   0.000011315   0.000008962
   7  6  0      -75.0141934970    -0.0000000002   0.000005753   0.000002313
   8  7  0      -75.0141934971    -0.0000000000   0.000001567   0.000000744
   9  8  0      -75.0141934971    -0.0000000000   0.000000260   0.000000137
  10  9  0      -75.0141934971    -0.0000000000   0.000000070   0.000000027
  11 10  0      -75.0141934971    -0.0000000000   0.000000000   0.000000007

          -----------------
          DENSITY CONVERGED
          -----------------
     TIME TO FORM FOCK OPERATORS=       0.0 SECONDS (       0.0 SEC/ITER)
     TIME TO SOLVE SCF EQUATIONS=       0.0 SECONDS (       0.0 SEC/ITER)

 FINAL RHF ENERGY IS      -75.0141934971 AFTER  11 ITERATIONS

          ------------
          EIGENVECTORS
          ------------

                      1          2          3          4          5
                  -20.2332    -1.2658    -0.6141    -0.4543    -0.3922
                     A          A          A          A          A   
    1  O  1  S    0.994117  -0.233615  -0.002867  -0.100402  -0.006095
    2  O  1  S    0.026612   0.837724   0.015198   0.523652   0.029450
    3  O  1  X   -0.003260  -0.090475   0.080783   0.622599  -0.610202
    4  O  1  Y   -0.002664  -0.080468  -0.279449   0.455754   0.663806
    5  O  1  Z   -0.000948  -0.028947   0.539167   0.136259   0.431365
    6  H  2  S   -0.005969   0.153362   0.431162  -0.275100  -0.009871
    7  H  3  S   -0.005981   0.159325  -0.448143  -0.270943  -0.013067

                      6          7
                    0.6146     0.7494
                     A          A   
    1  O  1  S   -0.132868   0.005532
    2  O  1  S    0.887247  -0.037828
    3  O  1  X   -0.564958  -0.100020
    4  O  1  Y   -0.431255   0.468175
    5  O  1  Z   -0.197457  -0.862035
    6  H  2  S   -0.766086   0.875903
    7  H  3  S   -0.830704  -0.805868
 ...... END OF RHF CALCULATION ......
 STEP CPU TIME =     0.00 TOTAL CPU TIME =          0.0 (      0.0 MIN)
 TOTAL WALL CLOCK TIME=          0.0 SECONDS, CPU UTILIZATION IS    61.84%

     ----------------------------------------------------------------
     PROPERTY VALUES FOR THE RHF   SELF-CONSISTENT FIELD WAVEFUNCTION
     ----------------------------------------------------------------

          -----------------
          ENERGY COMPONENTS
          -----------------

         WAVEFUNCTION NORMALIZATION =       1.0000000000

                ONE ELECTRON ENERGY =    -122.4991133477
                TWO ELECTRON ENERGY =      38.2899526437
           NUCLEAR REPULSION ENERGY =       9.1949672069
                                      ------------------
                       TOTAL ENERGY =     -75.0141934971

 ELECTRON-ELECTRON POTENTIAL ENERGY =      38.2899526437
  NUCLEUS-ELECTRON POTENTIAL ENERGY =    -197.1246770338
   NUCLEUS-NUCLEUS POTENTIAL ENERGY =       9.1949672069
                                      ------------------
             TOTAL POTENTIAL ENERGY =    -149.6397571832
               TOTAL KINETIC ENERGY =      74.6255636861
                 VIRIAL RATIO (V/T) =       2.0052077303
 MEMORY ASSIGNEMENT
 I10, I20, I21, I30, I31, I40, I41, I60 =
****************************************************************
 LAST = ********

          ---------------------------------------
          MULLIKEN AND LOWDIN POPULATION ANALYSES
          ---------------------------------------
 MEMORY ASSIGNMENT
 I10, I30, I40, I50, I60, I70, I41, I51, I61, I71 =
********************************************************************************
 LAST = ********

     ATOMIC MULLIKEN POPULATION IN EACH MOLECULAR ORBITAL

                      1          2          3          4          5

                  2.000000   2.000000   2.000000   2.000000   2.000000

    1             2.001430   1.618003   1.086079   1.686695   1.999546
    2            -0.000715   0.186690   0.443908   0.160846   0.000166
    3            -0.000716   0.195307   0.470012   0.152459   0.000288

          ----- MULLIKEN ATOMIC OVERLAP POPULATIONS -----
          (OFF-DIAGONAL ELEMENTS NEED TO BE MULTIPLIED BY 2)

                      1          2          3          4          5

    1  O  1  S    2.105942
    2  O  1  S   -0.105119   1.955600
    3  O  1  X    0.000000   0.000000   1.549394
    4  O  1  Y    0.000000   0.000000  -0.000000   1.465846
    5  O  1  Z   -0.000000  -0.000000  -0.000000   0.000000   0.992365
    6  H  2  S   -0.001653  -0.009001   0.041728   0.153933   0.082789
    7  H  3  S   -0.001576  -0.014970   0.093391   0.000211   0.187994

                      6          7

    6  H  2  S    0.570467
    7  H  3  S   -0.047366   0.599667

               ----- POPULATIONS IN EACH AO -----
                             MULLIKEN      LOWDIN
              1  O  1  S      1.99759     1.99597
              2  O  1  S      1.82651     1.67190
              3  O  1  X      1.68451     1.69201
              4  O  1  Y      1.61999     1.62922
              5  O  1  Z      1.26315     1.28553
              6  H  2  S      0.79090     0.85182
              7  H  3  S      0.81735     0.87354

          ----- MULLIKEN ATOMIC OVERLAP POPULATIONS -----
          (OFF-DIAGONAL ELEMENTS NEED TO BE MULTIPLIED BY 2)

             1           2           3

    1    7.8589084
    2    0.2677951   0.5704668
    3    0.2650501  -0.0473664   0.5996671

          TOTAL MULLIKEN AND LOWDIN ATOMIC POPULATIONS
       ATOM         MULL.POP.                    LOW.POP.

          TOTAL MULLIKEN AND LOWDIN ATOMIC POPULATIONS
       ATOM         MULL.POP.    CHARGE          LOW.POP.     CHARGE
    1 O             8.391754                     8.274638
    1 O             8.391754   -0.391754         8.274638   -0.274638
    2 H             0.790896                     0.851823
    2 H             0.790896    0.209104         0.851823    0.148177
    3 H             0.817351                     0.873539
    3 H             0.817351    0.182649         0.873539    0.126461

          -------------------------------
          BOND ORDER AND VALENCE ANALYSIS     BOND ORDER THRESHOLD=0.050
          -------------------------------

                   BOND                       BOND                       BOND
  ATOM PAIR DIST  ORDER      ATOM PAIR DIST  ORDER      ATOM PAIR DIST  ORDER
    1   2  0.957  0.944        1   3  0.957  0.955

                       TOTAL       BONDED        FREE
      ATOM            VALENCE     VALENCE     VALENCE
    1 O                 1.899       1.899      -0.000
    2 H                 0.956       0.956      -0.000
    3 H                 0.967       0.967       0.000

          ---------------------
          ELECTROSTATIC MOMENTS
          ---------------------

 POINT   1           X           Y           Z (BOHR)    CHARGE
                 1.699923    2.103735   -1.583280       -0.00 (A.U.)
         DX          DY          DZ         /D/  (DEBYE)
    -1.356774   -1.147838   -0.307477    1.803582
 ...... END OF PROPERTY EVALUATION ......
 STEP CPU TIME =     0.00 TOTAL CPU TIME =          0.0 (      0.0 MIN)
 TOTAL WALL CLOCK TIME=          0.0 SECONDS, CPU UTILIZATION IS    62.48%

 Iter=  1 iFrag=      3 EFMO=   -74.962589000, DD= 0.863302298, DE=************

 RHF      monomer      1 corr= NONE       , L1=     7, L0=     7 ID=      3


 Resetting LABSIZ= 1 2


          ********************
          1 ELECTRON INTEGRALS
          ********************
 OVERLAP MATRIX

                      1          2          3          4          5

    1  O  1  S    1.000000
    2  O  1  S    0.236704   1.000000
    3  O  1  X    0.000000   0.000000   1.000000
    4  O  1  Y    0.000000   0.000000   0.000000   1.000000
    5  O  1  Z    0.000000   0.000000   0.000000   0.000000   1.000000
    6  H  2  S    0.053978   0.474807   0.000000   0.000000   0.393452
    7  H  3  S    0.053978   0.474807   0.380885   0.000000  -0.098645

                      6          7

    6  H  2  S    1.000000
    7  H  3  S    0.251717   1.000000
 BARE NUCLEUS HAMILTONIAN INTEGRALS (H=T+V)

                      1          2          3          4          5

    1  O  1  S  -32.720933
    2  O  1  S   -7.612808  -9.334827
    3  O  1  X   -0.015028  -0.176763  -7.574798
    4  O  1  Y    0.000000   0.000000   0.000000  -7.457663
    5  O  1  Z   -0.011632  -0.136815   0.030337   0.000000  -7.590512
    6  H  2  S   -1.749572  -3.741382  -0.057717   0.000000  -2.611984
    7  H  3  S   -1.749573  -3.741384  -2.543029   0.000000   0.598997

                      6          7

    6  H  2  S   -5.076709
    7  H  3  S   -1.608381  -5.076710
 KINETIC ENERGY INTEGRALS

                      1          2          3          4          5

    1  O  1  S   29.003204
    2  O  1  S   -0.168011   0.808128
    3  O  1  X    0.000000   0.000000   2.528731
    4  O  1  Y    0.000000   0.000000   0.000000   2.528731
    5  O  1  Z    0.000000   0.000000   0.000000   0.000000   2.528731
    6  H  2  S   -0.002512   0.128611   0.000000   0.000000   0.284277
    7  H  3  S   -0.002512   0.128611   0.275198   0.000000  -0.071273

                      6          7

    6  H  2  S    0.760032
    7  H  3  S    0.008485   0.760032
 Z-ANGULAR MOMENTUM INTEGRALS

                      1          2          3          4          5

    1  O  1  S   -2.409594
    2  O  1  S    2.525884  -2.704595
    3  O  1  X    0.000000   0.000000   0.000000
    4  O  1  Y    0.000000   0.000000   0.000000   0.000000
    5  O  1  Z    0.000000   0.000000   0.000000   0.000000   0.000000
    6  H  2  S    0.000000   0.000000   0.000000   0.000000   0.000000
    7  H  3  S    0.000000   0.000000   0.000000   0.000000   0.000000

                      6          7

    6  H  2  S    0.000000
    7  H  3  S    0.000000   0.000000

          --------------------
          2 ELECTRON INTEGRALS
          --------------------

 DIRECT SCF METHOD SKIPS INTEGRAL STORAGE ON DISK.
  ...... END OF TWO-ELECTRON INTEGRALS .....
 STEP CPU TIME =     0.00 TOTAL CPU TIME =          0.0 (      0.0 MIN)
 TOTAL WALL CLOCK TIME=          0.0 SECONDS, CPU UTILIZATION IS    63.13%
 SCHWARZ INEQUALITY OVERHEAD:        56 INTEGRALS, T=        0.00
 ESP lfg=    2: NZ         784 skipped         0 blocks.

          --------------------
          2 ELECTRON INTEGRALS
          --------------------

 DIRECT SCF METHOD SKIPS INTEGRAL STORAGE ON DISK.
  ...... END OF TWO-ELECTRON INTEGRALS .....
 STEP CPU TIME =     0.00 TOTAL CPU TIME =          0.0 (      0.0 MIN)
 TOTAL WALL CLOCK TIME=          0.0 SECONDS, CPU UTILIZATION IS    63.29%
 SCHWARZ INEQUALITY OVERHEAD:        56 INTEGRALS, T=        0.00
 ESP lfg=    3: NZ         784 skipped         0 blocks.

          --------------------
          2 ELECTRON INTEGRALS
          --------------------

 DIRECT SCF METHOD SKIPS INTEGRAL STORAGE ON DISK.
  ...... END OF TWO-ELECTRON INTEGRALS .....
 STEP CPU TIME =     0.00 TOTAL CPU TIME =          0.0 (      0.0 MIN)
 TOTAL WALL CLOCK TIME=          0.0 SECONDS, CPU UTILIZATION IS    63.41%
 ...... END OF ONE-ELECTRON INTEGRALS ......
 STEP CPU TIME =     0.00 TOTAL CPU TIME =          0.0 (      0.0 MIN)
 TOTAL WALL CLOCK TIME=          0.0 SECONDS, CPU UTILIZATION IS    63.43%

          --------------------
          2 ELECTRON INTEGRALS
          --------------------

 THE -PK- OPTION IS OFF, THE INTEGRALS ARE NOT IN SUPERMATRIX FORM.
 STORING   15000 INTEGRALS/RECORD ON DISK, USING 12 BYTES/INTEGRAL.
 TWO ELECTRON INTEGRAL EVALUATION REQUIRES   89366 WORDS OF MEMORY.
 SCHWARZ INEQUALITY OVERHEAD:        28 INTEGRALS, T=        0.00
 II,JST,KST,LST =  1  1  1  1 NREC =         1 INTLOC =    1
 II,JST,KST,LST =  2  1  1  1 NREC =         1 INTLOC =    2
 II,JST,KST,LST =  3  1  1  1 NREC =         1 INTLOC =   34
 II,JST,KST,LST =  4  1  1  1 NREC =         1 INTLOC =   84
 SCHWARZ INEQUALITY TEST SKIPPED           0 INTEGRAL BLOCKS.
 TOTAL NUMBER OF NONZERO TWO-ELECTRON INTEGRALS =                 206
          1 INTEGRAL RECORDS WERE STORED ON DISK FILE  8.
  ...... END OF TWO-ELECTRON INTEGRALS .....
 STEP CPU TIME =     0.00 TOTAL CPU TIME =          0.0 (      0.0 MIN)
 TOTAL WALL CLOCK TIME=          0.0 SECONDS, CPU UTILIZATION IS    63.59%

          --------------------------
                 RHF SCF CALCULATION
          --------------------------

     NUCLEAR ENERGY =         9.1949667526
     MAXIT =   30     NPUNCH=    2
     EXTRAP=T  DAMP=F  SHIFT=F  RSTRCT=F  DIIS=F  DEM=F  SOSCF=T
     DENSITY MATRIX CONV=  1.00E-07
     SOSCF WILL OPTIMIZE      10 ORBITAL ROTATIONS, SOGTOL=   0.250
     MEMORY REQUIRED FOR RHF ITERS=     30481 WORDS.

 ITER EX DEM     TOTAL ENERGY        E CHANGE  DENSITY CHANGE     ORB. GRAD
   1  0  0      -74.8432206777   -74.8432206777   0.597252076   0.000000000
          ---------------START SECOND ORDER SCF---------------
   2  1  0      -74.9945423545    -0.1513216768   0.179334490   0.056411040
   3  2  0      -75.0060544646    -0.0115121101   0.083426092   0.017045875
   4  3  0      -75.0072849695    -0.0012305049   0.005068620   0.002960226
   5  4  0      -75.0073139909    -0.0000290213   0.002826194   0.001027361
   6  5  0      -75.0073184632    -0.0000044723   0.000010335   0.000008992
   7  6  0      -75.0073184634    -0.0000000002   0.000006275   0.000002268
   8  7  0      -75.0073184634    -0.0000000000   0.000001886   0.000000767
   9  8  0      -75.0073184634    -0.0000000000   0.000000200   0.000000140
  10  9  0      -75.0073184634    -0.0000000000   0.000000056   0.000000027

          -----------------
          DENSITY CONVERGED
          -----------------
     TIME TO FORM FOCK OPERATORS=       0.0 SECONDS (       0.0 SEC/ITER)
     TIME TO SOLVE SCF EQUATIONS=       0.0 SECONDS (       0.0 SEC/ITER)

 FINAL RHF ENERGY IS      -75.0073184634 AFTER  10 ITERATIONS

          ------------
          EIGENVECTORS
          ------------

                      1          2          3          4          5
                  -20.2308    -1.2640    -0.6125    -0.4534    -0.3908
                     A          A          A          A          A   
    1  O  1  S    0.994116  -0.233748   0.002586   0.099968   0.005836
    2  O  1  S    0.026617   0.838376  -0.014008  -0.521679  -0.028442
    3  O  1  X    0.003402   0.098052  -0.370110   0.626737   0.028732
    4  O  1  Y    0.000023   0.005249  -0.003025  -0.047103   0.998871
    5  O  1  Z    0.002644   0.074549   0.489236   0.469266   0.022985
    6  H  2  S   -0.005979   0.158534   0.447236   0.269235   0.013257
    7  H  3  S   -0.005970   0.153550  -0.430658   0.275708   0.009758

                      6          7
                    0.6171     0.7513
                     A          A   
    1  O  1  S   -0.133011   0.004990
    2  O  1  S    0.887988  -0.034328
    3  O  1  X    0.556348  -0.622951
    4  O  1  Y   -0.000655   0.000719
    5  O  1  Z    0.483012   0.763850
    6  H  2  S   -0.828566  -0.809292
    7  H  3  S   -0.768970   0.873397
 ...... END OF RHF CALCULATION ......
 STEP CPU TIME =     0.00 TOTAL CPU TIME =          0.0 (      0.0 MIN)
 TOTAL WALL CLOCK TIME=          0.0 SECONDS, CPU UTILIZATION IS    64.15%

     ----------------------------------------------------------------
     PROPERTY VALUES FOR THE RHF   SELF-CONSISTENT FIELD WAVEFUNCTION
     ----------------------------------------------------------------

          -----------------
          ENERGY COMPONENTS
          -----------------

         WAVEFUNCTION NORMALIZATION =       1.0000000000

                ONE ELECTRON ENERGY =    -122.5014806704
                TWO ELECTRON ENERGY =      38.2991954545
           NUCLEAR REPULSION ENERGY =       9.1949667526
                                      ------------------
                       TOTAL ENERGY =     -75.0073184634

 ELECTRON-ELECTRON POTENTIAL ENERGY =      38.2991954545
  NUCLEUS-ELECTRON POTENTIAL ENERGY =    -197.1308578777
   NUCLEUS-NUCLEUS POTENTIAL ENERGY =       9.1949667526
                                      ------------------
             TOTAL POTENTIAL ENERGY =    -149.6366956706
               TOTAL KINETIC ENERGY =      74.6293772072
                 VIRIAL RATIO (V/T) =       2.0050642424

  ...... PI ENERGY ANALYSIS ......

 ENERGY ANALYSIS:
            FOCK ENERGY=    -45.9030897787
          BARE H ENERGY=   -122.5014806704
     ELECTRONIC ENERGY =    -84.2022852246
         KINETIC ENERGY=     74.6293772072
          N-N REPULSION=      9.1949667526
           TOTAL ENERGY=    -75.0073184719
        SIGMA PART(1+2)=    -76.3448621593
               (K,V1,2)=     69.5719195386   -177.1405139871     31.2237322892
           PI PART(1+2)=     -7.8574199392
               (K,V1,2)=      5.0574576687    -19.9903417299      7.0754641221
  SIGMA SKELETON, ERROR=    -67.1498954067     -0.0000000000
             MIXED PART=-3.12610E-06 0.00000E+00-2.16074E-06-9.65369E-07
 ...... END OF PI ENERGY ANALYSIS ......
 MEMORY ASSIGNEMENT
 I10, I20, I21, I30, I31, I40, I41, I60 =
****************************************************************
 LAST = ********

          ---------------------------------------
          MULLIKEN AND LOWDIN POPULATION ANALYSES
          ---------------------------------------
 MEMORY ASSIGNMENT
 I10, I30, I40, I50, I60, I70, I41, I51, I61, I71 =
********************************************************************************
 LAST = ********

     ATOMIC MULLIKEN POPULATION IN EACH MOLECULAR ORBITAL

                      1          2          3          4          5

                  2.000000   2.000000   2.000000   2.000000   2.000000

    1             2.001430   1.618972   1.088006   1.686811   1.999526
    2            -0.000716   0.194035   0.469430   0.151293   0.000307
    3            -0.000715   0.186993   0.442564   0.161897   0.000167

          ----- MULLIKEN ATOMIC OVERLAP POPULATIONS -----
          (OFF-DIAGONAL ELEMENTS NEED TO BE MULTIPLIED BY 2)

                      1          2          3          4          5

    1  O  1  S    2.105877
    2  O  1  S   -0.105031   1.953473
    3  O  1  X    0.000000  -0.000000   1.080464
    4  O  1  Y   -0.000000   0.000000   0.000000   1.999998
    5  O  1  Z    0.000000  -0.000000   0.000000  -0.000000   0.931311
    6  H  2  S   -0.001603  -0.013622   0.000000   0.000000   0.281125
    7  H  3  S   -0.001654  -0.009023   0.264718  -0.000000   0.013743

                      6          7

    6  H  2  S    0.595704
    7  H  3  S   -0.047256   0.570380

               ----- POPULATIONS IN EACH AO -----
                             MULLIKEN      LOWDIN
              1  O  1  S      1.99759     1.99596
              2  O  1  S      1.82580     1.67118
              3  O  1  X      1.34518     1.36129
              4  O  1  Y      2.00000     2.00000
              5  O  1  Z      1.22618     1.24875
              6  H  2  S      0.81435     0.87099
              7  H  3  S      0.79091     0.85183

          ----- MULLIKEN ATOMIC OVERLAP POPULATIONS -----
          (OFF-DIAGONAL ELEMENTS NEED TO BE MULTIPLIED BY 2)

             1           2           3

    1    7.8610620
    2    0.2658999   0.5957044
    3    0.2677833  -0.0472562   0.5703795

          TOTAL MULLIKEN AND LOWDIN ATOMIC POPULATIONS
       ATOM         MULL.POP.                    LOW.POP.

          TOTAL MULLIKEN AND LOWDIN ATOMIC POPULATIONS
       ATOM         MULL.POP.    CHARGE          LOW.POP.     CHARGE
    1 O             8.394745                     8.277178
    1 O             8.394745   -0.394745         8.277178   -0.277178
    2 H             0.814348                     0.870993
    2 H             0.814348    0.185652         0.870993    0.129007
    3 H             0.790907                     0.851829
    3 H             0.790907    0.209093         0.851829    0.148171

          -------------------------------
          BOND ORDER AND VALENCE ANALYSIS     BOND ORDER THRESHOLD=0.050
          -------------------------------

                   BOND                       BOND                       BOND
  ATOM PAIR DIST  ORDER      ATOM PAIR DIST  ORDER      ATOM PAIR DIST  ORDER
    1   2  0.957  0.954        1   3  0.957  0.944

                       TOTAL       BONDED        FREE
      ATOM            VALENCE     VALENCE     VALENCE
    1 O                 1.898       1.898      -0.000
    2 H                 0.966       0.966      -0.000
    3 H                 0.956       0.956      -0.000

          ---------------------
          ELECTROSTATIC MOMENTS
          ---------------------

 POINT   1           X           Y           Z (BOHR)    CHARGE
                 1.699923    2.103735   -1.583280       -0.00 (A.U.)
         DX          DY          DZ         /D/  (DEBYE)
     1.479244   -0.000516    1.048005    1.812864
 ...... END OF PROPERTY EVALUATION ......
 STEP CPU TIME =     0.00 TOTAL CPU TIME =          0.0 (      0.0 MIN)
 TOTAL WALL CLOCK TIME=          0.0 SECONDS, CPU UTILIZATION IS    64.74%

 Iter=  1 iFrag=      1 EFMO=   -74.962560851, DD= 0.861174890, DE=************
 STEP CPU TIME =     0.00 TOTAL CPU TIME =          0.0 (      0.0 MIN)
 TOTAL WALL CLOCK TIME=          0.0 SECONDS, CPU UTILIZATION IS    64.76%

  Monomer SCF synchronisation on iteration   1.1 took     0.0 s.


 ------------------------------------------------------------------------------
 FMO iter  1.1,      0 fragment(s) converged, maxD 0.863302298 maxE74.962589000
 ------------------------------------------------------------------------------

 RHF      monomer      2 corr= NONE       , L1=     7, L0=     7 ID=      1


 Resetting LABSIZ= 1 2


          ********************
          1 ELECTRON INTEGRALS
          ********************
 OVERLAP MATRIX

                      1          2          3          4          5

    1  O  1  S    1.000000
    2  O  1  S    0.236704   1.000000
    3  O  1  X   -0.000000   0.000000   1.000000
    4  O  1  Y   -0.000000   0.000000   0.000000   1.000000
    5  O  1  Z    0.000000  -0.000000  -0.000000  -0.000000   1.000000
    6  H  2  S    0.053978   0.474807  -0.226162   0.300144  -0.116484
    7  H  3  S    0.053978   0.474807   0.171162  -0.128471  -0.330157

                      6          7

    6  H  2  S    1.000000
    7  H  3  S    0.251717   1.000000
 BARE NUCLEUS HAMILTONIAN INTEGRALS (H=T+V)

                      1          2          3          4          5

    1  O  1  S  -32.720933
    2  O  1  S   -7.612808  -9.334827
    3  O  1  X    0.002170   0.025525  -7.522616
    4  O  1  Y   -0.006773  -0.079671   0.072563  -7.543727
    5  O  1  Z    0.017622   0.207279   0.024356  -0.006018  -7.556630
    6  H  2  S   -1.749573  -3.741384   1.484061  -1.984486   0.827753
    7  H  3  S   -1.749573  -3.741384  -1.108511   0.812273   2.221984

                      6          7

    6  H  2  S   -5.076710
    7  H  3  S   -1.608383  -5.076710
 KINETIC ENERGY INTEGRALS

                      1          2          3          4          5

    1  O  1  S   29.003204
    2  O  1  S   -0.168011   0.808128
    3  O  1  X    0.000000  -0.000000   2.528731
    4  O  1  Y    0.000000  -0.000000  -0.000000   2.528731
    5  O  1  Z    0.000000   0.000000   0.000000   0.000000   2.528731
    6  H  2  S   -0.002512   0.128611  -0.163407   0.216861  -0.084162
    7  H  3  S   -0.002512   0.128611   0.123668  -0.092823  -0.238545

                      6          7

    6  H  2  S    0.760032
    7  H  3  S    0.008485   0.760032
 Z-ANGULAR MOMENTUM INTEGRALS

                      1          2          3          4          5

    1  O  1  S    0.051148
    2  O  1  S   -2.103735   1.129770
    3  O  1  X    0.000000   0.000000   0.000000
    4  O  1  Y    0.000000   0.000000   0.000000   0.000000
    5  O  1  Z    0.000000   0.000000   0.000000   0.000000   0.000000
    6  H  2  S    0.000000   0.000000   0.000000   0.000000   0.000000
    7  H  3  S    0.000000   0.000000   0.000000   0.000000   0.000000

                      6          7

    6  H  2  S    0.000000
    7  H  3  S    0.000000   0.000000

          --------------------
          2 ELECTRON INTEGRALS
          --------------------

 DIRECT SCF METHOD SKIPS INTEGRAL STORAGE ON DISK.
  ...... END OF TWO-ELECTRON INTEGRALS .....
 STEP CPU TIME =     0.00 TOTAL CPU TIME =          0.0 (      0.0 MIN)
 TOTAL WALL CLOCK TIME=          0.0 SECONDS, CPU UTILIZATION IS    65.33%
 SCHWARZ INEQUALITY OVERHEAD:        56 INTEGRALS, T=        0.00
 ESP lfg=    1: NZ         784 skipped         0 blocks.

          --------------------
          2 ELECTRON INTEGRALS
          --------------------

 DIRECT SCF METHOD SKIPS INTEGRAL STORAGE ON DISK.
  ...... END OF TWO-ELECTRON INTEGRALS .....
 STEP CPU TIME =     0.00 TOTAL CPU TIME =          0.0 (      0.0 MIN)
 TOTAL WALL CLOCK TIME=          0.0 SECONDS, CPU UTILIZATION IS    65.46%
 SCHWARZ INEQUALITY OVERHEAD:        56 INTEGRALS, T=        0.00
 ESP lfg=    3: NZ         784 skipped         0 blocks.

          --------------------
          2 ELECTRON INTEGRALS
          --------------------

 DIRECT SCF METHOD SKIPS INTEGRAL STORAGE ON DISK.
  ...... END OF TWO-ELECTRON INTEGRALS .....
 STEP CPU TIME =     0.00 TOTAL CPU TIME =          0.0 (      0.0 MIN)
 TOTAL WALL CLOCK TIME=          0.0 SECONDS, CPU UTILIZATION IS    65.58%
 ...... END OF ONE-ELECTRON INTEGRALS ......
 STEP CPU TIME =     0.00 TOTAL CPU TIME =          0.0 (      0.0 MIN)
 TOTAL WALL CLOCK TIME=          0.0 SECONDS, CPU UTILIZATION IS    65.59%

          --------------------
          2 ELECTRON INTEGRALS
          --------------------

 THE -PK- OPTION IS OFF, THE INTEGRALS ARE NOT IN SUPERMATRIX FORM.
 STORING   15000 INTEGRALS/RECORD ON DISK, USING 12 BYTES/INTEGRAL.
 TWO ELECTRON INTEGRAL EVALUATION REQUIRES   89366 WORDS OF MEMORY.
 SCHWARZ INEQUALITY OVERHEAD:        28 INTEGRALS, T=        0.00
 II,JST,KST,LST =  1  1  1  1 NREC =         1 INTLOC =    1
 II,JST,KST,LST =  2  1  1  1 NREC =         1 INTLOC =    2
 II,JST,KST,LST =  3  1  1  1 NREC =         1 INTLOC =   34
 II,JST,KST,LST =  4  1  1  1 NREC =         1 INTLOC =  145
 SCHWARZ INEQUALITY TEST SKIPPED           0 INTEGRAL BLOCKS.
 TOTAL NUMBER OF NONZERO TWO-ELECTRON INTEGRALS =                 319
          1 INTEGRAL RECORDS WERE STORED ON DISK FILE  8.
  ...... END OF TWO-ELECTRON INTEGRALS .....
 STEP CPU TIME =     0.00 TOTAL CPU TIME =          0.0 (      0.0 MIN)
 TOTAL WALL CLOCK TIME=          0.0 SECONDS, CPU UTILIZATION IS    65.73%

          --------------------------
                 RHF SCF CALCULATION
          --------------------------

     NUCLEAR ENERGY =         9.1949679482
     MAXIT =   30     NPUNCH=    2
     EXTRAP=T  DAMP=F  SHIFT=F  RSTRCT=F  DIIS=F  DEM=F  SOSCF=T
     DENSITY MATRIX CONV=  1.00E-07
     SOSCF WILL OPTIMIZE      10 ORBITAL ROTATIONS, SOGTOL=   0.250
     MEMORY REQUIRED FOR RHF ITERS=     30481 WORDS.

 ITER EX DEM     TOTAL ENERGY        E CHANGE  DENSITY CHANGE     ORB. GRAD
   1  0  0      -75.0285294364   -75.0285294364   0.002570780   0.000000000
          ---------------START SECOND ORDER SCF---------------
   2  1  0      -75.0285325952    -0.0000031588   0.000432957   0.000213454
   3  2  0      -75.0285327682    -0.0000001729   0.000167607   0.000057462
   4  3  0      -75.0285327833    -0.0000000152   0.000007373   0.000004178
   5  4  0      -75.0285327834    -0.0000000001   0.000005578   0.000001676
   6  5  0      -75.0285327834    -0.0000000000   0.000000222   0.000000139
   7  6  0      -75.0285327834    -0.0000000000   0.000000068   0.000000031
   8  7  0      -75.0285327834    -0.0000000000   0.000000000   0.000000003

          -----------------
          DENSITY CONVERGED
          -----------------
     TIME TO FORM FOCK OPERATORS=       0.0 SECONDS (       0.0 SEC/ITER)
     TIME TO SOLVE SCF EQUATIONS=       0.0 SECONDS (       0.0 SEC/ITER)

 FINAL RHF ENERGY IS      -75.0285327834 AFTER   8 ITERATIONS

          ------------
          EIGENVECTORS
          ------------

                      1          2          3          4          5
                  -20.2351    -1.2677    -0.6155    -0.4563    -0.3937
                     A          A          A          A          A   
    1  O  1  S    0.994118  -0.233555   0.002735  -0.100582  -0.006041
    2  O  1  S    0.026610   0.837420  -0.014592   0.524437   0.029145
    3  O  1  X   -0.000506  -0.019214   0.393264   0.061260   0.763762
    4  O  1  Y    0.001514   0.040944  -0.417516  -0.316681   0.618244
    5  O  1  Z   -0.004011  -0.116489  -0.214580   0.713701   0.183093
    6  H  2  S   -0.005969   0.153725  -0.431574  -0.275569  -0.009134
    7  H  3  S   -0.005980   0.159277   0.448160  -0.270788  -0.013415

                      6          7
                    0.6126     0.7476
                     A          A   
    1  O  1  S   -0.132849   0.005283
    2  O  1  S    0.887161  -0.036174
    3  O  1  X   -0.055699   0.631922
    4  O  1  Y    0.233018  -0.688871
    5  O  1  Z   -0.697837  -0.314416
    6  H  2  S   -0.767366   0.874375
    7  H  3  S   -0.829391  -0.807267
 ...... END OF RHF CALCULATION ......
 STEP CPU TIME =     0.00 TOTAL CPU TIME =          0.0 (      0.0 MIN)
 TOTAL WALL CLOCK TIME=          0.0 SECONDS, CPU UTILIZATION IS    66.12%

     ----------------------------------------------------------------
     PROPERTY VALUES FOR THE RHF   SELF-CONSISTENT FIELD WAVEFUNCTION
     ----------------------------------------------------------------

          -----------------
          ENERGY COMPONENTS
          -----------------

         WAVEFUNCTION NORMALIZATION =       1.0000000000

                ONE ELECTRON ENERGY =    -122.5103931595
                TWO ELECTRON ENERGY =      38.2868924278
           NUCLEAR REPULSION ENERGY =       9.1949679482
                                      ------------------
                       TOTAL ENERGY =     -75.0285327834

 ELECTRON-ELECTRON POTENTIAL ENERGY =      38.2868924278
  NUCLEUS-ELECTRON POTENTIAL ENERGY =    -197.1345452976
   NUCLEUS-NUCLEUS POTENTIAL ENERGY =       9.1949679482
                                      ------------------
             TOTAL POTENTIAL ENERGY =    -149.6526849216
               TOTAL KINETIC ENERGY =      74.6241521382
                 VIRIAL RATIO (V/T) =       2.0054188977
 MEMORY ASSIGNEMENT
 I10, I20, I21, I30, I31, I40, I41, I60 =
****************************************************************
 LAST = ********

          ---------------------------------------
          MULLIKEN AND LOWDIN POPULATION ANALYSES
          ---------------------------------------
 MEMORY ASSIGNMENT
 I10, I30, I40, I50, I60, I70, I41, I51, I61, I71 =
********************************************************************************
 LAST = ********

     ATOMIC MULLIKEN POPULATION IN EACH MOLECULAR ORBITAL

                      1          2          3          4          5

                  2.000000   2.000000   2.000000   2.000000   2.000000

    1             2.001430   1.617517   1.085490   1.686757   1.999558
    2            -0.000715   0.187245   0.444354   0.161039   0.000137
    3            -0.000716   0.195238   0.470156   0.152204   0.000305

          ----- MULLIKEN ATOMIC OVERLAP POPULATIONS -----
          (OFF-DIAGONAL ELEMENTS NEED TO BE MULTIPLIED BY 2)

                      1          2          3          4          5

    1  O  1  S    2.105957
    2  O  1  S   -0.105142   1.956153
    3  O  1  X    0.000000   0.000000   1.484222
[...]
   4  3  0     -149.9943976237    -0.0000184957   0.000235385   0.000096168
   5  4  0     -149.9943977151    -0.0000000914   0.000094704   0.000025660
   6  5  0     -149.9943977279    -0.0000000128   0.000013684   0.000004864
   7  6  0     -149.9943977283    -0.0000000004   0.000005922   0.000001731
   8  7  0     -149.9943977283    -0.0000000000   0.000000565   0.000000210
   9  8  0     -149.9943977283    -0.0000000000   0.000000173   0.000000050
  10  9  0     -149.9943977283     0.0000000000   0.000000031   0.000000011

          -----------------
          DENSITY CONVERGED
          -----------------
     TIME TO FORM FOCK OPERATORS=       0.0 SECONDS (       0.0 SEC/ITER)
     TIME TO SOLVE SCF EQUATIONS=       0.0 SECONDS (       0.0 SEC/ITER)

 FINAL RHF ENERGY IS     -149.9943977283 AFTER  10 ITERATIONS

          ------------
          EIGENVECTORS
          ------------

                      1          2          3          4          5
                  -20.2482   -20.2172    -1.2776    -1.2558    -0.6281
                     A          A          A          A          A   
    1  O  1  S    0.994114  -0.002295  -0.224570   0.064316   0.002005
    2  O  1  S    0.026612   0.000230   0.805052  -0.232906  -0.013211
    3  O  1  X   -0.000561  -0.000308  -0.019704   0.001380   0.376199
    4  O  1  Y    0.001452  -0.000242   0.039054  -0.012988  -0.329072
    5  O  1  Z   -0.003957   0.000235  -0.112124   0.034427  -0.212541
    6  H  2  S   -0.005906   0.000209   0.145886  -0.043543  -0.362438
    7  H  3  S   -0.005952   0.000128   0.151025  -0.046930   0.404396
    8  O  4  S    0.002186   0.994099  -0.061144  -0.225213  -0.006063
    9  O  4  S    0.000467   0.026702   0.216584   0.807489   0.028065
   10  O  4  X    0.000315   0.003438   0.029717   0.095375  -0.179949
   11  O  4  Y    0.000022   0.000020   0.002597   0.005170  -0.013658
   12  O  4  Z   -0.000113   0.002641   0.017375   0.071929   0.207296
   13  H  5  S    0.000054  -0.005983   0.039334   0.154400   0.197560
   14  H  6  S   -0.000867  -0.006094   0.052537   0.147439  -0.213572

                      6          7          8          9         10
                   -0.6055    -0.4700    -0.4440    -0.3939    -0.3818
                     A          A          A          A          A   
    1  O  1  S   -0.000701  -0.083675   0.055403   0.004181   0.002318
    2  O  1  S   -0.000340   0.436937  -0.286359  -0.023591  -0.012395
    3  O  1  X   -0.125847   0.008452  -0.246152   0.700337   0.173313
    4  O  1  Y    0.284311  -0.315274  -0.037627   0.589281   0.123418
    5  O  1  Z    0.051407   0.599660  -0.411396   0.111364   0.027789
    6  H  2  S    0.233635  -0.243302   0.121004   0.009214  -0.000284
    7  H  3  S   -0.186664  -0.225654   0.149280   0.014594   0.012627
    8  O  4  S    0.002012   0.054929   0.081708   0.019836   0.009104
    9  O  4  S   -0.010575  -0.288242  -0.424841  -0.102196  -0.044755
   10  O  4  X   -0.327481   0.231330   0.515944   0.276406   0.085626
   11  O  4  Y    0.004306  -0.019112  -0.026696  -0.234034   0.971485
   12  O  4  Z    0.421437   0.288435   0.382466   0.072554   0.033968
   13  H  5  S    0.391344   0.185866   0.222615   0.022188   0.015031
   14  H  6  S   -0.381458   0.124216   0.215181   0.077830   0.022066

                     11         12         13         14
                    0.5883     0.6498     0.7397     0.7781
                     A          A          A          A   
    1  O  1  S   -0.120473  -0.056530   0.007330  -0.008267
    2  O  1  S    0.792099   0.394241  -0.052657   0.079206
    3  O  1  X   -0.084268   0.027617   0.619164   0.139194
    4  O  1  Y    0.155279   0.157005  -0.698364   0.036623
    5  O  1  Z   -0.574349  -0.370096  -0.288205  -0.195644
    6  H  2  S   -0.632980  -0.395449   0.895211  -0.067659
    7  H  3  S   -0.718109  -0.407237  -0.781083  -0.227021
    8  O  4  S   -0.068522   0.112622  -0.001154   0.021621
    9  O  4  S    0.452161  -0.755420   0.010810  -0.147660
   10  O  4  X    0.341705  -0.347929   0.069562  -0.668244
   11  O  4  Y    0.008522   0.007035  -0.008957   0.003128
   12  O  4  Z    0.179600  -0.560397  -0.070269   0.685294
   13  H  5  S   -0.355749   0.855486   0.074647  -0.687784
   14  H  6  S   -0.439324   0.515745  -0.108142   0.961900
 ...... END OF RHF CALCULATION ......
 STEP CPU TIME =     0.00 TOTAL CPU TIME =          0.1 (      0.0 MIN)
 TOTAL WALL CLOCK TIME=          0.1 SECONDS, CPU UTILIZATION IS    82.57%

     ----------------------------------------------------------------
     PROPERTY VALUES FOR THE RHF   SELF-CONSISTENT FIELD WAVEFUNCTION
     ----------------------------------------------------------------

          -----------------
          ENERGY COMPONENTS
          -----------------

         WAVEFUNCTION NORMALIZATION =       1.0000000000

                ONE ELECTRON ENERGY =    -282.0756500887
                TWO ELECTRON ENERGY =      95.1156531255
           NUCLEAR REPULSION ENERGY =      36.9655992349
                                      ------------------
                       TOTAL ENERGY =    -149.9943977283

 ELECTRON-ELECTRON POTENTIAL ENERGY =      95.1156531255
  NUCLEUS-ELECTRON POTENTIAL ENERGY =    -431.3292765441
   NUCLEUS-NUCLEUS POTENTIAL ENERGY =      36.9655992349
                                      ------------------
             TOTAL POTENTIAL ENERGY =    -299.2480241837
               TOTAL KINETIC ENERGY =     149.2536264554
                 VIRIAL RATIO (V/T) =       2.0049631710
 MEMORY ASSIGNEMENT
 I10, I20, I21, I30, I31, I40, I41, I60 =
****************************************************************
 LAST = ********

          ---------------------------------------
          MULLIKEN AND LOWDIN POPULATION ANALYSES
          ---------------------------------------
 MEMORY ASSIGNMENT
 I10, I30, I40, I50, I60, I70, I41, I51, I61, I71 =
********************************************************************************
 LAST = ********

     ATOMIC MULLIKEN POPULATION IN EACH MOLECULAR ORBITAL

                      1          2          3          4          5

                  2.000000   2.000000   2.000000   2.000000   2.000000

    1             2.001419   0.000010   1.498667   0.120684   0.857482
    2            -0.000707   0.000000   0.172257   0.012923   0.322763
    3            -0.000712  -0.000000   0.177909   0.015678   0.384344
    4             0.000010   2.001436   0.112515   1.501791   0.224805
    5             0.000000  -0.000716   0.012770   0.182218   0.092768
    6            -0.000010  -0.000730   0.025882   0.166706   0.117838

                      6          7          8          9         10

                  2.000000   2.000000   2.000000   2.000000   2.000000

    1             0.277383   1.257248   0.589462   1.689300   0.090804
    2             0.121109   0.123775   0.032845   0.000248  -0.000001
    3             0.081620   0.106193   0.045924   0.000485   0.000323
    4             0.824112   0.406667   1.129484   0.298641   1.907691
    5             0.358400   0.073529   0.102411   0.000893   0.000376
    6             0.337376   0.032588   0.099875   0.010433   0.000806

          ----- MULLIKEN ATOMIC OVERLAP POPULATIONS -----
          (OFF-DIAGONAL ELEMENTS NEED TO BE MULTIPLIED BY 2)

                      1          2          3          4          5

    1  O  1  S    2.105870
    2  O  1  S   -0.105046   1.953723
    3  O  1  X    0.000000   0.000000   1.477853
    4  O  1  Y   -0.000000  -0.000000   0.000000   1.308230
    5  O  1  Z   -0.000000  -0.000000  -0.000000   0.000000   1.207204
    6  H  2  S   -0.001644  -0.008578   0.087805   0.161775   0.028760
    7  H  3  S   -0.001583  -0.014025   0.050097   0.026713   0.203921
    8  O  4  S   -0.000000   0.000000   0.000000   0.000000   0.000000
    9  O  4  S    0.000000  -0.000058  -0.000206  -0.000062  -0.000035
   10  O  4  X    0.000000  -0.000327  -0.000588  -0.000194  -0.000088
   11  O  4  Y    0.000000  -0.000014  -0.000021   0.000001   0.000006
   12  O  4  Z    0.000000  -0.000022  -0.000047  -0.000011  -0.000002
   13  H  5  S   -0.000000   0.000058   0.000071   0.000015   0.000009
   14  H  6  S   -0.000014   0.000218   0.003661   0.002779   0.001304

                      6          7          8          9         10

    6  H  2  S    0.566166
    7  H  3  S   -0.046805   0.594005
    8  O  4  S    0.000000  -0.000000   2.105816
    9  O  4  S    0.000033   0.000027  -0.104967   1.953162
   10  O  4  X   -0.000047   0.000083   0.000000  -0.000000   1.106122
   11  O  4  Y    0.000080   0.000003  -0.000000   0.000000   0.000000
   12  O  4  Z    0.000006   0.000006   0.000000  -0.000000   0.000000
   13  H  5  S    0.000011  -0.000007  -0.001572  -0.015810   0.000000
   14  H  6  S   -0.002350  -0.000668  -0.001706  -0.007457   0.260611

                     11         12         13         14

   11  O  4  Y    1.999745
   12  O  4  Z   -0.000000   0.923912
   13  H  5  S   -0.000000   0.282126   0.604848
   14  H  6  S   -0.000000   0.013615  -0.047100   0.567872

               ----- POPULATIONS IN EACH AO -----
                             MULLIKEN      LOWDIN
              1  O  1  S      1.99758     1.99593
              2  O  1  S      1.82593     1.66960
              3  O  1  X      1.61862     1.62884
              4  O  1  Y      1.49925     1.51333
              5  O  1  Z      1.44108     1.45511
              6  H  2  S      0.78521     0.84657
              7  H  3  S      0.81176     0.86894
              8  O  4  S      1.99757     1.99594
              9  O  4  S      1.82463     1.67077
             10  O  4  X      1.36557     1.38239
             11  O  4  Y      1.99980     1.99980
             12  O  4  Z      1.21958     1.24313
             13  H  5  S      0.82265     0.87770
             14  H  6  S      0.79076     0.85194

          ----- MULLIKEN ATOMIC OVERLAP POPULATIONS -----
          (OFF-DIAGONAL ELEMENTS NEED TO BE MULTIPLIED BY 2)

             1           2           3           4           5

    1    7.8427864
    2    0.2681195   0.5661657
    3    0.2651220  -0.0468054   0.5940049
    4   -0.0016683   0.0000722   0.0001177   7.8788228
    5    0.0001528   0.0000112  -0.0000075   0.2647442   0.6048482
    6    0.0079471  -0.0023499  -0.0006681   0.2650630  -0.0471004

             6

    6    0.5678720

          TOTAL MULLIKEN AND LOWDIN ATOMIC POPULATIONS
       ATOM         MULL.POP.                    LOW.POP.

          TOTAL MULLIKEN AND LOWDIN ATOMIC POPULATIONS
       ATOM         MULL.POP.    CHARGE          LOW.POP.     CHARGE
    1 O             8.382459                     8.262806
    1 O             8.382459   -0.382459         8.262806   -0.262806
    2 H             0.785213                     0.846572
    2 H             0.785213    0.214787         0.846572    0.153428
    3 H             0.811764                     0.868938
    3 H             0.811764    0.188236         0.868938    0.131062
    4 O             8.407151                     8.292041
    4 O             8.407151   -0.407151         8.292041   -0.292041
    5 H             0.822648                     0.877699
    5 H             0.822648    0.177352         0.877699    0.122301
    6 H             0.790764                     0.851945
    6 H             0.790764    0.209236         0.851945    0.148055

          -------------------------------
          BOND ORDER AND VALENCE ANALYSIS     BOND ORDER THRESHOLD=0.050
          -------------------------------

                   BOND                       BOND                       BOND
  ATOM PAIR DIST  ORDER      ATOM PAIR DIST  ORDER      ATOM PAIR DIST  ORDER
    1   2  0.957  0.942        1   3  0.957  0.951        4   5  0.957  0.957
    4   6  0.957  0.920

                       TOTAL       BONDED        FREE
      ATOM            VALENCE     VALENCE     VALENCE
    1 O                 1.934       1.934       0.000
    2 H                 0.954       0.954      -0.000
    3 H                 0.965       0.965      -0.000
    4 O                 1.892       1.892       0.000
    5 H                 0.969       0.969       0.000
    6 H                 0.956       0.956       0.000

          ---------------------
          ELECTROSTATIC MOMENTS
          ---------------------

 POINT   1           X           Y           Z (BOHR)    CHARGE
                 1.699923    2.103735   -1.583280        0.00 (A.U.)
         DX          DY          DZ         /D/  (DEBYE)
     1.434839    0.783393   -0.737347    1.793362
 ...... END OF PROPERTY EVALUATION ......
 STEP CPU TIME =     0.00 TOTAL CPU TIME =          0.1 (      0.0 MIN)
 TOTAL WALL CLOCK TIME=          0.1 SECONDS, CPU UTILIZATION IS    82.74%
 Redoing 1e ESP:                    -1
 STEP CPU TIME =     0.00 TOTAL CPU TIME =          0.1 (      0.0 MIN)
 TOTAL WALL CLOCK TIME=          0.1 SECONDS, CPU UTILIZATION IS    82.74%
 STEP CPU TIME =     0.00 TOTAL CPU TIME =          0.1 (      0.0 MIN)
 TOTAL WALL CLOCK TIME=          0.1 SECONDS, CPU UTILIZATION IS    82.75%

  iFrag=      2 jFrag=      1 EFMOu=  -149.932672519 Tr=-0.000507645
 STEP CPU TIME =     0.00 TOTAL CPU TIME =          0.1 (      0.0 MIN)
 TOTAL WALL CLOCK TIME=          0.1 SECONDS, CPU UTILIZATION IS    82.75%

 Dimer synchronisation for layer 1 took     0.0 s.
 STEP CPU TIME =     0.00 TOTAL CPU TIME =          0.1 (      0.0 MIN)
 TOTAL WALL CLOCK TIME=          0.1 SECONDS, CPU UTILIZATION IS    82.75%
 Tim:  IJ     0.01 lump  0.00 DFTBg  0.00 PCM 0.00 SCZV   0.00 total      0.01
 STEP CPU TIME =     0.00 TOTAL CPU TIME =          0.1 (      0.0 MIN)
 TOTAL WALL CLOCK TIME=          0.1 SECONDS, CPU UTILIZATION IS    82.76%


         FMO properties
         ###############


 Layer 1 converged in  5 iterations (max 30, conv .10E-06).


 Nuclear repulsion energy:             83.203451965
 Total number of atoms:                     9
 Total number of electrons:                30
 Total charge:                              0
 Total spin multiplicity:                   1
 Total number of basis functions:          21
 Total number of molecular orbitals:       21

 Energy values (E) are given with external ESP subtracted.

 D(dipole), Q(quadrupole) and O(octopole) moments are printed in the order:
 X,Y,Z; XX,YY,ZZ,XY,XZ,YZ; XXX,XXY,XXZ,XYY,YYY,YYZ,XZZ,YZZ,ZZZ,XYZ,
 computed at the point (A):    0.89956039   1.11324844  -0.83783572

 One-body FMO properties.
 =======================

                            E"          DX        DY        DZ
    1(FRAG01  ,L1)    -74.962620286   1.47070  -0.00060   1.04486
    2(FRAG02  ,L1)    -74.962621415  -0.25849   0.69909  -1.63830
    3(FRAG03  ,L1)    -74.962632906  -1.35397  -1.14183  -0.31247

 Frontier molecular orbital (FMO!) properties based on Koopmans' theorem.
 Electronegativity = - chemical potential. All values are in eV.

  Frag  Ionization    Electron    Chemical    Global       Global  Electrophili-
         potential    affinity    potential  hardness     softness  city index
 EA and related properties are often very inaccurate.
 -------------------------------------------------------------------------------
     1   10.681519   16.722850  -13.702185   -6.041332   -0.165526    -15.538780
     2   10.711252   16.669962  -13.690607   -5.958710   -0.167822    -15.727625
     3   10.695492   16.684376  -13.689934   -5.988884   -0.166976    -15.646846

 Total energy of the molecule: Euncorr(1)=     -224.887874607
 Dipole moment D(xyz),DA(1)=   -0.1417639   -0.4433400   -0.9059166    1.0184950

 Two-body FMO properties.
 ========================

 DL: D=C dynamically correlated (MP2,CI), D=N not dynamically correlated
 (RHF,DFT). D=S separated dimer: semiclassical interaction (ES), D=M MCSCF.
 L stands for layer, Z is the monomer charge product, R is the interfragment
 distance relative to van-der-Waals radii (-1.00 is printed if distances are
 not computed). dDIJ*VIJ is the explicit embedded charge transfer energy.
 Q(I->J) is the charge transfer amount, printed as zero if not available.
 Positive values correspond to I in IJ having extra negative charge.

    I    J DL  Z    R   Q(I->J)        E"        E"IJ-E"I-E"J   dDIJ*VIJ      Gsol     tot
 ------------------------------------------------------------------------------------------
    2    1 N1  0   0.77  0.0000   -149.932672519  -0.00743082 -0.00050764    0.000   -4.981
    3    1 N1  0   0.77  0.0000   -149.932666261  -0.00741307 -0.00053993    0.000   -4.991
    3    2 N1  0   0.78  0.0000   -149.931644922  -0.00639060 -0.00045574    0.000   -4.296

 Total energy of the molecule: Euncorr(2)=     -224.910612407
 Dipole moment D(xyz),DA(2)=   -0.1131329   -0.4571393   -0.8945089    1.0109014

                ONE ELECTRON ENERGY =         -478.4634682090
                TWO ELECTRON ENERGY =          170.3494038364
           NUCLEAR REPULSION ENERGY =           83.2034519654
                                      -----------------------
                       TOTAL ENERGY =         -224.9106124072

 ELECTRON-ELECTRON POTENTIAL ENERGY =          170.3494038364
  NUCLEUS-ELECTRON POTENTIAL ENERGY =         -702.3482973276
   NUCLEUS-NUCLEUS POTENTIAL ENERGY =           83.2034519654
                                      -----------------------
             TOTAL POTENTIAL ENERGY =         -448.7954415257
               TOTAL KINETIC ENERGY =          223.8848291185
                 VIRIAL RATIO (V/T) =            2.0045817454

 Done with FMO properties.
 STEP CPU TIME =     0.00 TOTAL CPU TIME =          0.1 (      0.0 MIN)
 TOTAL WALL CLOCK TIME=          0.1 SECONDS, CPU UTILIZATION IS    82.77%
 STEP CPU TIME =     0.00 TOTAL CPU TIME =          0.1 (      0.0 MIN)
 TOTAL WALL CLOCK TIME=          0.1 SECONDS, CPU UTILIZATION IS    82.80%
 Tim: PCM ini  0.01 in mon    0.05 in dim    0.01 in prp    0.00 total     0.07

 Total timing statistics in pairs (CPU,wall) for each rank, sec

    Rank   total     SCF    corr     DFT    CPHF     EFP    solv     ESP    geom
 -------------------------------------------------------------------------------
       1       0.1      0.0      0.0      0.0    0.0   0.0    0.0     0.0    0.0
       1       0.1      0.0      0.0      0.0    0.0   0.0    0.0     0.0    0.0
averaged       0.1      0.0      0.0      0.0    0.0   0.0    0.0     0.0    0.0
averaged       0.1      0.0      0.0      0.0    0.0   0.0    0.0     0.0    0.0

  FMO  timing statistics in pairs (CPU,wall) for each rank, sec

    Rank  FMOini FMOscf1  FMOdm1 FMOsyn1 FMOscf2  FMOes2 FMOsyn2 FMOscf3 FMOsyn3
 -------------------------------------------------------------------------------
       1    0.0       0.0    0.0    0.0       0.0       0.0    0.0    0.0    0.0
       1    0.0       0.0    0.0    0.0       0.0       0.0    0.0    0.0    0.0
averaged    0.0       0.0    0.0    0.0       0.0       0.0    0.0    0.0    0.0
 DDI: 263640 bytes (0.3 MB / 0 MWords) used by master data server.

 ----------------------------------------
 CPU timing information for all processes
 ========================================
 0: 0.47 + 0.28 = 0.75
 ----------------------------------------
averaged    0.0       0.0    0.0    0.0       0.0       0.0    0.0    0.0    0.0
               580000  WORDS OF DYNAMIC MEMORY USED
 EXECUTION OF GAMESS TERMINATED NORMALLY 10:07:27 10-JAN-2022    
 ddikick.x: exited gracefully.
----- accounting info -----
Files used on the master node joh-ASUS were:
-rw-rw-r-- 1 joh joh  29665 ene 10 10:07 /tmp/H2O_trimer_outputMOCOEFF.dat
-rw-rw-r-- 1 joh joh   1451 ene 10 10:07 /tmp/H2O_trimer_outputMOCOEFF.F05
-rw-rw-r-- 1 joh joh 180016 ene 10 10:07 /tmp/H2O_trimer_outputMOCOEFF.F08
-rw-rw-r-- 1 joh joh  65440 ene 10 10:07 /tmp/H2O_trimer_outputMOCOEFF.F10
-rw-rw-r-- 1 joh joh 114688 ene 10 10:07 /tmp/H2O_trimer_outputMOCOEFF.F40
lun 10 ene 2022 10:07:30 -03
0.0u 0.0s 0:03.16 1.8% 0+0k 448+16io 9pf+0w
