1 : H2O_trimer_CCSD.inp
----- GAMESS execution script 'rungms' -----
This job is running on host joh-ASUS
under operating system Linux at mar 21 dic 2021 09:37:54 -03
Available scratch disk space (Kbyte units) at beginning of the job is
Filesystem     1K-blocks      Used Available Use% Mounted on
/dev/nvme0n1p7 673524032 112045116 527196064  18% /
GAMESS temporary binary files will be written to /tmp
GAMESS supplementary output files will be written to /tmp
Copying input file ./H2O_trimer_CCSD.inp to your run's scratch directory...

 Distributed Data Interface kickoff program.
 Initiating 1 compute processes on 1 nodes to run the following command:
 /usr/local/gamess/gamess.00.x H2O_trimer_CCSD 

          *******************************************************
          *                                                     *
          *      GAMESS VERSION = 30 SEP 2021 (R2 Patch 1)      *
          *                                                     *
          *              doi.org/10.1063/5.0005188              *
          *                                                     *
          **************** 64 BIT LINUX VERSION *****************

  GAMESS HAS BEEN MADE POSSIBLE WITH IMPORTANT CONTRIBUTIONS FROM
  THE FOLLOWING INDIVIDUALS (IN ALPHABETICAL ORDER):

     IVANA ADAMOVIC, CHRISTINE AIKENS, TOMOKO AKAMA,
     YURI ALEXEEV, YURIKO AOKI, POOJA ARORA, TOSHIO ASADA,
     ANDREY ASADCHEV, KIM K. BALDRIDGE, PRADIPTA BANDYOPADHYAY,
     TAYLOR A. BARNES, MARIA BARYSZ, ROB BELL,
     JONATHAN BENTZ, COLLEEN BERTONI,
     JERRY A. BOATZ, BRETT BODE, KURT BRORSEN, KURT R. BRORSEN,
     LAIMUTIS BYTAUTAS, CALEB CARLIN, LAURA CARRINGTON,
     GALINA CHABAN, BENOIT CHAMPAGNE, WEI CHEN, MAHITO CHIBA,
     DAN CHIPMAN, CHEOL HO CHOI, TANNER CULPITT,
     DIPAYAN DATTA, PAUL DAY, ALBERT DEFUSCO,
     NUWAN DESILVA, J. EMILIANO DEUSTUA,
     TIM DUDLEY, MICHEL DUPUIS, STEVEN T. ELBERT,
     DMITRI FEDOROV, ALEX FINDLATER, GRAHAM FLETCHER,
     MARK FREITAG, CHRISTIAN FRIEDL, DAVID GARMER,
     IGOR S. GERASIMOV, KURT GLAESEMANN, MARK S. GORDON,
     JEFFREY GOUR, FENG LONG GU, EMILIE B. GUIDEZ,
     ANASTASIA GUNINA, SHARON HAMMES-SCHIFFER, MASATAKE HARUTA,
     KIMIHIKO HIRAO, YASUHIRO IKABATA, TZVETELIN IORDANOV,
     STEPHAN IRLE, KAZUYA ISHIMURA, JOE IVANIC, FRANK JENSEN,
     JAN H. JENSEN, VISVALDAS KAIRYS, MUNEAKI KAMIYA,
     MICHIO KATOUDA, NAOAKI KAWAKAMI, DAN KEMP, BERNARD KIRTMAN,
     KAZUO KITAURA, MARIUSZ KLOBUKOWSKI, MASATO KOBAYASHI,
     PRAKASHAN KORAMBATH, JACEK KORCHOWIEC, SHIRO KOSEKI,
     KAROL KOWALSKI, JIMMY KROMANN, STANISLAW KUCHARSKI,
     HENRY KURTZ, SAROM SOK LEANG, HUI LI, SHUHUA LI, WEI LI,
     JESSE LUTZ, ALEKSANDR O. LYKHIN, MARCIN MAKOWSKI,
     JOANI MATO, NIKITA MATSUNAGA, BENEDETTA MENNUCCI,
     GRANT MERRILL, NORIYUKI MINEZAWA, VLADIMIR MIRONOV,
     EISAKU MIYOSHI, JOHN A. MONTGOMERY JR., HIROTOSHI MORI,
     JONATHAN MULLIN, MONIKA MUSIAL, SHIGERU NAGASE,
     TAKESHI NAGATA, HIROMI NAKAI, TAKAHITO NAKAJIMA,
     YUYA NAKAJIMA, HARUYUKI NAKANO, HIROYA NAKATA, SEAN NEDD,
     HEATHER NETZLOFF, KIET A. NGUYEN, YOSHIO NISHIMOTO,
     BOSILJKA NJEGIC, RYAN OLSON, MIKE PAK, ROBERTO PEVERATI,
     BUU PHAM, PIOTR PIECUCH, ANNA POMOGAEVA, DAVID POOLE,
     SPENCER PRUITT, OLIVIER QUINET, LUKE ROSKOP,
     KLAUS RUEDENBERG, ANDREW SAND, TOSAPORN SATTASATHUCHANA,
     NOZOMI SAWADA, MICHAEL W. SCHMIDT, PATRICK E. SCHNEIDER,
     JUNJI SEINO, PRACHI SHARMA, JUN SHEN, JIM SHOEMAKER,
     YINAN SHU, DEJUN SI, JONATHAN SKONE, LYUDMILA SLIPCHENKO,
     TONY SMITH, JIE SONG, MARK SPACKMAN, CASPER STEINMANN,
     WALT STEVENS, PEIFENG SU, SHUJUN SU, CHET SWALINA,
     TETSUYA TAKETSUGU, ZHEN TAO, NANDUN THELLAMUREGE
     SEIKEN TOKURA, JACOPO TOMASI, TSUGUKI TOUMA, TAKAO TSUNEDA,
     HIROAKI UMEDA, JORGE LUIS GALVEZ VALLEJO, YALI WANG,
     SIMON WEBB, AARON WEST, THERESA L. WINDUS, MARTA WLOCH,
     PENG XU, KIYOSHI YAGI, SUSUMU YANAGISAWA, YANG YANG,
     SOOHAENG YOO, TAKESHI YOSHIKAWA, FEDERICO ZAHARIEV,
     TOBY ZENG

  WHO ARE SUPPORTED BY THEIR INSTITUTION/UNIVERSITY/COMPANY/GROUP
  (IN ALPHABETICAL ORDER):

     EP ANALYTICS, FACULTES UNIVERSITAIRES NOTRE-DAME DE LA PAIX,
     INSTITUTE FOR MOLECULAR SCIENCE, IOWA STATE UNIVERSITY,
     JACKSON STATE UNIVERSITY, JOHANNES KEPLER UNIVERSITY LINZ,
     KYUSHU UNIVERSITY, MICHIGAN STATE UNIVERSITY,
     MIE UNIVERSITY, THE MOLECULAR SCIENCES SOFTWARE INSTITUTE,
     MOSCOW STATE UNIVERSITY,
     N. COPERNICUS UNIVERSITY, NAGOYA UNIVERSITY,
     NANJING UNIVERSITY, NAT. INST. OF ADVANCED INDUSTRIAL
     SCIENCE AND TECHNOLOGY, NATIONAL INST. OF STANDARDS AND
     TECHNOLOGY, NESMEYANOV INSTITUTE OF ORGANOELEMENT COMPOUNDS
     OF RUSSIAN ACADEMY OF SCIENCES, OSAKA PREFECTURE UNIVERSITY,
     PENNSYLVANIA STATE UNIVERSITY, TOKYO INSTITUTE OF TECHNOLOGY,
     UNIVERSITY OF AARHUS, UNIVERSITY OF ALBERTA,
     UNIVERSITY OF CALIFORNIA AT SANTA BARBARA,
     UNIVERSITY OF COPENHAGEN, UNIVERSITY OF IOWA,
     UNIVERSITY OF MEMPHIS, UNIVERSITY OF MINNESOTA,
     UNIVERSITY OF NEBRASKA, UNIVERSITY OF NEW ENGLAND,
     UNIVERSITY OF NOTRE DAME, UNIVERSITY OF PISA,
     UNIVERSITY OF SILESIA, UNIVERSITY OF TOKYO,
     UNIVERSITY OF ZURICH, WASEDA UNIVERSITY, YALE UNIVERSITY

  GAMESS SOFTWARE MANAGEMENT TEAM FOR THIS RELEASE:
     MARK S. GORDON (TEAM LEAD),
     BRETT BODE (SENIOR ADVISOR),
     GIUSEPPE BARCA,
     COLLEEN BERTONI,
     KRISTOPHER KEIPERT (ADVISOR),
     SAROM S. LEANG (DEVELOPMENT LEAD),
     BUU PHAM,
     JORGE LUIS GALVEZ VALLEJO (WEBSITE ADMINISTRATOR),
     PENG XU

 EXECUTION OF GAMESS BEGUN 09:37:54 21-DEC-2021    

            ECHO OF THE FIRST FEW INPUT CARDS -
 INPUT CARD>! EXAM 37.                                                                      
 INPUT CARD>!    water trimer...illustration of FMO method on clusters                      
 INPUT CARD>!                                                                               
 INPUT CARD>!    A total of 21 energies are computed in this run,                           
 INPUT CARD>!    of which the very first and last are -75.0201194583                        
 INPUT CARD>!    and -149.9943977172, from various monomer and dimer                        
 INPUT CARD>!    calculations.  Combined together, the results for                          
 INPUT CARD>!    2-body FMO-RHF are:                                                        
 INPUT CARD>!    Euncorr(2)= -224.910612407, RMS GRADIENT = 0.0267805                       
 INPUT CARD>!                                                                               
 INPUT CARD>!    Explicit RHF/STO-3G calculation on these coords has                        
 INPUT CARD>!             E= -224.9112662623,          grad=0.0269349                       
 INPUT CARD>!                                                                               
 INPUT CARD>!    See ../gamess/tools/fmo for larger examples based on                       
 INPUT CARD>!    published data and examples involving bond fractioning.                    
 INPUT CARD>!                                                                               
 INPUT CARD> $contrl scftyp=rhf CCTYP=ccsd runtyp=gradient $end                             
 INPUT CARD> $SCF diis=.t. MAXDII=8 ETHRSH=0.0005 soscf=.f. damp=.f.                        
 INPUT CARD>    shift=.t. SWDIIS=0.03 SOGTOL=2.0 dirscf=.t. LOCOPT=.t. $end                 
 INPUT CARD> $SYSTEM TIMLIM=90000 MWORDS=500 MEMDDI=500 $END                                
 INPUT CARD> $STATPT METHOD=rfo NSTEP=500 DXMAX=0.05 $END                                   
 INPUT CARD> $GUESS GUESS=huckel $END                                                       
 INPUT CARD> $system timlim=1 $end                                                          
 INPUT CARD> $basis  gbasis=sto ngauss=3 $end                                               
 INPUT CARD> $fmo    nfrag=3 icharg(1)=0,0,0                                                
 INPUT CARD>         frgnam(1)=frag01,frag02,frag03                                         
 INPUT CARD>         indat(1)=1,1,1,                                                        
 INPUT CARD>                  2,2,2,                                                        
 INPUT CARD>                  3,3,3                                                         
 INPUT CARD> $end                                                                           
 INPUT CARD> $fmoprp nprint=0 $end                                                          
 INPUT CARD> $fmoxyz                                                                        
 INPUT CARD>O  O        .000000     .000000     .000000                                     
 INPUT CARD>H  H        .000000     .000000     .957200                                     
 INPUT CARD>H  H        .926627     .000000    -.239987                                     
 INPUT CARD>O  O       2.542027     .893763   -1.001593                                     
 INPUT CARD>H  H       1.991815    1.623962   -1.284979                                     
 INPUT CARD>H  H       2.958433     .581215   -1.804806                                     
 INPUT CARD>O  O        .162059    2.462918   -1.477183                                     
 INPUT CARD>H  H       -.189749    1.755643    -.936605                                     
 INPUT CARD>H  H       -.375542    2.449889   -2.269046                                     
 INPUT CARD> $end                                                                           
 INPUT CARD> $data                                                                          
 INPUT CARD>Basis set input, with no atomic coordinates                                     
 INPUT CARD>C1                                                                              
 INPUT CARD>h-1 1                                                                           
 INPUT CARD>c-1 6                                                                           
 INPUT CARD>n-1 7                                                                           
 INPUT CARD>o-1 8                                                                           
 INPUT CARD> $end                                                                           
  500000000 WORDS OF MEMORY AVAILABLE

     BASIS OPTIONS
     -------------
     GBASIS=STO          IGAUSS=       3      POLAR=NONE    
     NDFUNC=       0     NFFUNC=       0     DIFFSP=       F
     NPFUNC=       0      DIFFS=       F     BASNAM=        


     RUN TITLE
     ---------
 Basis set input, with no atomic coordinates                                     

 THE POINT GROUP OF THE MOLECULE IS C1      
 THE ORDER OF THE PRINCIPAL AXIS IS     0

 ATOM   ATOMIC CHARGE
 H-1         1.0
 C-1         6.0
 N-1         7.0
 O-1         8.0

     ATOMIC BASIS SET LIBRARY
     ----------------
 THE CONTRACTED PRIMITIVE FUNCTIONS HAVE BEEN UNNORMALIZED
 THE CONTRACTED BASIS FUNCTIONS ARE NOW NORMALIZED TO UNITY

  SHELL TYPE  PRIMITIVE        EXPONENT          CONTRACTION COEFFICIENT(S)

 H-1       

      1   S       1             3.4252509    0.154328967295
      1   S       2             0.6239137    0.535328142282
      1   S       3             0.1688554    0.444634542185

 C-1       

      2   S       4            71.6168373    0.154328967295
      2   S       5            13.0450963    0.535328142282
      2   S       6             3.5305122    0.444634542185

      3   L       7             2.9412494   -0.099967229187    0.155916274999
      3   L       8             0.6834831    0.399512826089    0.607683718598
      3   L       9             0.2222899    0.700115468880    0.391957393099

 N-1       

      4   S      10            99.1061690    0.154328967295
      4   S      11            18.0523124    0.535328142282
      4   S      12             4.8856602    0.444634542185

      5   L      13             3.7804559   -0.099967229187    0.155916274999
      5   L      14             0.8784966    0.399512826089    0.607683718598
      5   L      15             0.2857144    0.700115468880    0.391957393099

 O-1       

      6   S      16           130.7093214    0.154328967295
      6   S      17            23.8088661    0.535328142282
      6   S      18             6.4436083    0.444634542185

      7   L      19             5.0331513   -0.099967229187    0.155916274999
      7   L      20             1.1695961    0.399512826089    0.607683718598
      7   L      21             0.3803890    0.700115468880    0.391957393099

 TOTAL NUMBER OF BASIS SET SHELLS             =    7
 NUMBER OF CARTESIAN GAUSSIAN BASIS FUNCTIONS =   16

 SELECTED MURRAY-HANDY-LAMING RADIAL GRID

 LEGACY BECKE'S FUZZY CELL METHOD

 SELECTED ORIGINAL BECKE'S PARTITION FUNCTION

     $CONTRL OPTIONS
     ---------------
 SCFTYP=RHF          RUNTYP=GRADIENT     EXETYP=RUN     
 MPLEVL=       0     CITYP =NONE         CCTYP =CCSD         VBTYP =NONE    
 DFTTYP=NONE         TDDFT =NONE    
 MULT  =       1     ICHARG=       0     NZVAR =       0     COORD =UNIQUE  
 PP    =NONE         RELWFN=NONE         LOCAL =NONE         NUMGRD=       F
 ISPHER=      -1     NOSYM =       0     MAXIT =      30     UNITS =ANGS    
 PLTORB=       F     MOLPLT=       F     AIMPAC=       F     FRIEND=        
 NPRINT=       7     IREST =       0     GEOM  =INPUT   
 NORMF =       0     NORMP =       0     ITOL  =      24     ICUT  =      12
 INTTYP=BEST         GRDTYP=BEST         QMTTOL= 1.0E-06

     $SYSTEM OPTIONS
     ---------------
  REPLICATED MEMORY=   500000000 WORDS (ON EVERY NODE).
 DISTRIBUTED MEMDDI=         500 MILLION WORDS IN AGGREGATE,
 MEMDDI DISTRIBUTED OVER   1 PROCESSORS IS   500000000 WORDS/PROCESSOR.
 TOTAL MEMORY REQUESTED ON EACH PROCESSOR=  1000000000 WORDS.
 TIMLIM=           1.00 MINUTES, OR       0.0 DAYS.
 PARALL= F  BALTYP=  DLB     KDIAG=    0  COREFL= F
 MXSEQ2=     300 MXSEQ3=     150  mem10=         0  mem22=         0

     High-tech $SYSTEM options in MODIO:       1
        (       1) file flushing:        no 
        (       2) recycle dictionary:   no 
        (       4) skip timing summary:  no 
        (       8) save DFT grid file:   yes
        (      16) reduce output:        no 
        (      32) slaves open F15:      yes
        (      64) in-memory F15:        no 
        (     128) parallelize EVVRSP:   yes
        (     256) reduce timing output: no 
        (     512) use XYZ file:         no 
        (    1024) supershort output:    no 
        (    2048) superfast calculation:no 

          ----------------
          PROPERTIES INPUT
          ----------------

     MOMENTS            FIELD           POTENTIAL          DENSITY
 IEMOM =       1   IEFLD =       0   IEPOT =       0   IEDEN =       0
 WHERE =COMASS     WHERE =NUCLEI     WHERE =NUCLEI     WHERE =NUCLEI  
 OUTPUT=BOTH       OUTPUT=BOTH       OUTPUT=NONE       OUTPUT=BOTH    
 IEMINT=       0   IEFINT=       0                     IEDINT=       0
                                                       MORB  =       0
          EXTRAPOLATION IN EFFECT
          LEVEL SHIFTING IN EFFECT
          DIIS IN EFFECT
          SCF OPTIONS such as shift are locked during converger and grid switches
 ORBITAL PRINTING OPTION: NPREO=     1 32767     2     1

     -------------------------------
     INTEGRAL TRANSFORMATION OPTIONS
     -------------------------------
     NWORD  =            0
     CUTOFF = 1.0E-10     MPTRAN =       0
     DIRTRF =       T     AOINTS =DUP     

          ----------------------
          INTEGRAL INPUT OPTIONS
          ----------------------
 NOPK  =       1 NORDER=       0 SCHWRZ=       T

     *** ERROR IN CC CALCULATION ***
 THE NUMBER OF CORRELATED OCCUPIED ORBITALS=     8
 THE NUMBER OF EMPTY, CORRELATING ORBITALS =     5
 NEITHER OF THESE SHOULD BE ZERO, AND YOU MUST RUN
 WITH MORE EMPTY THAN OCCUPIED ORBITALS.


 FMO dump: step 0 layer 0 n-mer       0       0       0 iter  0
 NAT,ICH,MUL,NUM,NQMT,NE,NA=  4  0     1    16    16    22    11
 EXECUTION OF GAMESS TERMINATED -ABNORMALLY- AT 09:37:54 21-DEC-2021    
               580000  WORDS OF DYNAMIC MEMORY USED
 STEP CPU TIME =     0.00 TOTAL CPU TIME =          0.0 (      0.0 MIN)
 TOTAL WALL CLOCK TIME=          0.0 SECONDS, CPU UTILIZATION IS    99.98%
 ddikick.x: application process 0 quit unexpectedly.
 ddikick.x: Sending kill signal to DDI processes.
 ddikick.x: Execution terminated due to error(s).
----- accounting info -----
Files used on the master node joh-ASUS were:
-rw-rw-r-- 1 joh joh    481 dic 21 09:37 /tmp/H2O_trimer_CCSD.dat
-rw-rw-r-- 1 joh joh   1659 dic 21 09:37 /tmp/H2O_trimer_CCSD.F05
-rw-rw-r-- 1 joh joh 818000 dic 21 09:37 /tmp/H2O_trimer_CCSD.F10
mar 21 dic 2021 09:37:56 -03
0.0u 0.0s 0:02.06 2.4% 0+0k 0+24io 0pf+0w
